  Input file(s): O.q0.opt.in.xml 

=====================================================
                    QMCPACK 1.0.0 

  (c) Copyright 2003-  QMCPACK developers            

  Subversion branch 6920
  Last modified     2016-05-18 01:53:58 +0000 (Wed, 18 May 2016)
=====================================================
  Global options 
  async_swap=0 : using blocking send/recv for walker swaps 

  MPI Nodes            = 32
  MPI Nodes per group  = 32
  MPI Group ID         = 0
  OMP_NUM_THREADS      = 16
  Input XML = O.q0.opt.in.xml

  Project = O.q0.opt
  date    = 2016-05-24 16:57:21 UTC
  host    = Q02-I1-J00.vesta.itd
  user    = krogel

  DO NOT READ DENSITY
  Offset for the random number seeds based on time 1009
  Random number offset = 1009  seeds = 8039-12763
  Create Global SuperCell 
  Simulation cell radius = 9.448631
  Wigner-Seitz    radius = 9.448631
<unitcell>
<parameter name="lattice">
     18.8972613300      0.0000000000      0.0000000000
      0.0000000000     18.8972613300      0.0000000000
      0.0000000000      0.0000000000     18.8972613300
</parameter>
<parameter name="bconds">  n  n  n </parameter>
<note>
Volume (A^3) = 6748.3345843151
Reciprocal vectors without 2*pi.
g_1 =       0.0529177209      0.0000000000      0.0000000000
g_2 =       0.0000000000      0.0529177209      0.0000000000
g_3 =       0.0000000000      0.0000000000      0.0529177209
Metric tensor in real-space.
h_1 = 357.1064857743 0.0000000000 0.0000000000 
h_2 = 0.0000000000 357.1064857743 0.0000000000 
h_3 = 0.0000000000 0.0000000000 357.1064857743 
Metric tensor in g-space.
h_1 = 0.1105508278 0.0000000000 0.0000000000 
h_2 = 0.0000000000 0.1105508278 0.0000000000 
h_3 = 0.0000000000 0.0000000000 0.1105508278 
</note>
<note>
	Long-range breakup parameters:
	rc*kc = 15.0000000000; rc = 1000000.0000000000; kc = 0.0000000000

</note>
</unitcell>
  Creating ion0 particleset
  Initializing the lattice of ion0 by the global supercell
  All the species have the same mass 1.0000000000
Particles are grouped. Safe to use groups 
ion0
  Creating e particleset
  Initializing the lattice of e by the global supercell
  All the species have the same mass 1.0000000000
Particles are grouped. Safe to use groups 
e
 Adding WavefunctionFactory for psi0
EinsplineSetBuilder:  using libeinspline for B-spline orbitals.
Built BasisSetBuilder "bspline" of type bspline
 Building SPOset  with  basis set.
TOKEN=0 createSPOSetFromXML /soft/applications/qmcpack/src/QMCWaveFunctions/EinsplineSetBuilder_createSPOs.cpp 42
  Distance table for AA: source/target = e
    PBC=open Orthorhombic=NA
 using Cartesian coordinates with 
  ... ParticleSet::addTable Create Table #0 e_e
  Distance table for AB: source = ion0 target = e
    PBC=open Orthorhombic=NA
 using Cartesian coordinates 
  ... ParticleSet::addTable Create Table #1 ion0_e
  TileMatrix = 
 [  1  0  0
    0  1  0
    0  0  1 ]
  Reading 4 orbitals from HDF5 file.
TOKEN=1 ReadOrbitalInfo /soft/applications/qmcpack/src/QMCWaveFunctions/EinsplineSetBuilderOld.cpp 34
  HDF5 orbital file version 2.1.0
TOKEN=2 ReadOrbitalInfo_ESHDF /soft/applications/qmcpack/src/QMCWaveFunctions/EinsplineSetBuilderESHDF.fft.cpp 47
  Reading orbital file in ESHDF format.
  ESHDF orbital file version 2.1.0
  Lattice = 
    [ 18.897261 -0.000000 -0.000000
      -0.000000 18.897261 -0.000000
      -0.000000 -0.000000 18.897261 ]
TOKEN=3 CheckLattice /soft/applications/qmcpack/src/QMCWaveFunctions/EinsplineSetBuilderCommon.cpp 99
  SuperLattice = 
    [ 18.897261  0.000000  0.000000
       0.000000 18.897261  0.000000
       0.000000  0.000000 18.897261 ]
bands=8, elecs=6, spins=2, twists=1, muffin tins=0, core states=0
atomic orbital=0
Atom type(0) = 8
   Skip initialization of the density
TIMER  EinsplineSetBuilder::ReadOrbitalInfo 0.1424932000
TIMER  EinsplineSetBuilder::BroadcastOrbitalInfo 0.0001052538
Found 1 distinct supercell twists.
number of things
1
1
Super twist #0:  [   0.00000   0.00000   0.00000 ]
  Using supercell twist 0:  [   0.00000   0.00000   0.00000]
Using 1 copies of twist angle [-0.000, -0.000, -0.000]
Using real orbitals.
TOKEN=4 OccupyBands /soft/applications/qmcpack/src/QMCWaveFunctions/EinsplineSetBuilderCommon.cpp 759
TOKEN=5 OccupyBands_ESHDF /soft/applications/qmcpack/src/QMCWaveFunctions/EinsplineSetBuilderESHDF.fft.cpp 307
Sorting the bands now:
We will read 4 distinct orbitals.
There are 0 core states and 4 valence states.
TOKEN=6 TileIons /soft/applications/qmcpack/src/QMCWaveFunctions/EinsplineSetBuilderCommon.cpp 291
Rcut = 0.0000000000
dilation = 1
TOKEN=7 bcastSortBands /soft/applications/qmcpack/src/QMCWaveFunctions/einspline_helper.hpp 409
BandInfoGroup::selectBands bigspace has 8 distinct orbitals 
BandInfoGroup::selectBands using distinct orbitals [0,4)
  Number of distinct bands 4
  First Band index 0
  First SPO index 0
  Size of SPOs 4
  AdoptorName = SplineR2RAdoptor
  Using real einspline table
NumDistinctOrbitals 4 numOrbs = 4
  TwistIndex = 0 TwistAngle      -0.0000000000     -0.0000000000     -0.0000000000
   HalfG =                  0                 0                 0
TOKEN=8 ReadGvectors_ESHDF /soft/applications/qmcpack/src/QMCWaveFunctions/EinsplineSetBuilderReadBands_ESHDF.cpp 660
B-spline mesh factor is 1.0000000000
B-spline mesh size is (180, 180, 180)
Maxmimum number of Gvecs 322453
  Using meshsize=               180               180               180
  vs input meshsize=               180               180               180
  Time to read the table in einspline.tile_100010001.spin_0.tw_0.l0u4.g180x180x180.h5 = 0.0014379431
  SplineAdoptorReader initialize_spline_pio 3.0493158825 sec
MEMORY increase 187 MB BsplineSetReader
TIMER  EinsplineSetBuilder::ReadBands 3.2698406462
   Using Identity for the LCOrbitalSet 
Reuse BasisSetBuilder "bspline" type bspline
 Building SPOset  with  basis set.
TOKEN=9 createSPOSetFromXML /soft/applications/qmcpack/src/QMCWaveFunctions/EinsplineSetBuilder_createSPOs.cpp 42
  ... ParticleSet::addTable Reuse Table #1 ion0_e
TOKEN=10 OccupyBands /soft/applications/qmcpack/src/QMCWaveFunctions/EinsplineSetBuilderCommon.cpp 759
TOKEN=11 OccupyBands_ESHDF /soft/applications/qmcpack/src/QMCWaveFunctions/EinsplineSetBuilderESHDF.fft.cpp 307
Sorting the bands now:
We will read 2 distinct orbitals.
There are 0 core states and 2 valence states.
Rcut = 0.0000000000
dilation = 1
TOKEN=12 bcastSortBands /soft/applications/qmcpack/src/QMCWaveFunctions/einspline_helper.hpp 409
BandInfoGroup::selectBands bigspace has 8 distinct orbitals 
BandInfoGroup::selectBands using distinct orbitals [0,2)
  Number of distinct bands 2
  First Band index 0
  First SPO index 0
  Size of SPOs 2
  AdoptorName = SplineR2RAdoptor
  Using real einspline table
NumDistinctOrbitals 2 numOrbs = 2
  TwistIndex = 0 TwistAngle      -0.0000000000     -0.0000000000     -0.0000000000
   HalfG =                  0                 0                 0
TOKEN=13 ReadGvectors_ESHDF /soft/applications/qmcpack/src/QMCWaveFunctions/EinsplineSetBuilderReadBands_ESHDF.cpp 660
B-spline mesh factor is 1.0000000000
B-spline mesh size is (180, 180, 180)
Maxmimum number of Gvecs 322453
  Using meshsize=               180               180               180
  vs input meshsize=               180               180               180
  Time to read the table in einspline.tile_100010001.spin_1.tw_0.l0u2.g180x180x180.h5 = 0.0014434306
  SplineAdoptorReader initialize_spline_pio 2.9270365725 sec
MEMORY increase 187 MB BsplineSetReader
TIMER  EinsplineSetBuilder::ReadBands 3.0198939375
   Using Identity for the LCOrbitalSet 
  Creating a determinant updet group=0 sposet=updet
  Reusing a SPO set updet

  Creating a determinant downdet group=1 sposet=downdet
  Reusing a SPO set downdet

  FermionWF=SlaterDet
  BsplineJastrowBuilder adds a functor with cusp = -0.2500000000
 size = 8 parameters 
 cusp = -0.2500000000
 rcut = 10.0000000000
Parameter     Name      Value
uu_0 0.0000000000 1 1  ON 0
uu_1 0.0000000000 1 1  ON 1
uu_2 0.0000000000 1 1  ON 2
uu_3 0.0000000000 1 1  ON 3
uu_4 0.0000000000 1 1  ON 4
uu_5 0.0000000000 1 1  ON 5
uu_6 0.0000000000 1 1  ON 6
uu_7 0.0000000000 1 1  ON 7
  BsplineJastrowBuilder adds a functor with cusp = -0.5000000000
 size = 8 parameters 
 cusp = -0.5000000000
 rcut = 10.0000000000
Parameter     Name      Value
ud_0 0.0000000000 1 1  ON 0
ud_1 0.0000000000 1 1  ON 1
ud_2 0.0000000000 1 1  ON 2
ud_3 0.0000000000 1 1  ON 3
ud_4 0.0000000000 1 1  ON 4
ud_5 0.0000000000 1 1  ON 5
ud_6 0.0000000000 1 1  ON 6
ud_7 0.0000000000 1 1  ON 7

  Using BsplineBuilder for one-body jastrow with B-spline functions
  ... ParticleSet::addTable Reuse Table #1 ion0_e
  ... ParticleSet::addTable Reuse Table #1 ion0_e
 size = 8 parameters 
 cusp = 0.0000000000
 rcut = 5.0000000000
Parameter     Name      Value
eO_0 0.0000000000 1 1  ON 0
eO_1 0.0000000000 1 1  ON 1
eO_2 0.0000000000 1 1  ON 2
eO_3 0.0000000000 1 1  ON 3
eO_4 0.0000000000 1 1  ON 4
eO_5 0.0000000000 1 1  ON 5
eO_6 0.0000000000 1 1  ON 6
eO_7 0.0000000000 1 1  ON 7
  QMCHamiltonian::addOperator Kinetic to H, physical Hamiltonian 
  ... ParticleSet::addTable Reuse Table #0 e_e
  QMCHamiltonian::addOperator ElecElec to H, physical Hamiltonian 
QMCHamiltonian::addOperatorType added type coulomb named ElecElec
  CoulombAA for ion0 is not created.  Number of particles == 1 and nonPeriodic

  ECPotential builder for pseudopotential 

  Adding pseudopotential for O
   Linear grid  ri=0.0000000000 rf=10.0000000000 npts = 10001
    ECPComponentBuilder::buildSemiLocalAndLocal 
    Assuming Hartree unit
   Number of angular momentum channels 2
   Maximum angular momentum channel 1
   Creating a Linear Grid Rmax=1.3100000000
  Using global grid with delta = 0.0010000000
   Making L=1 a local potential with a radial cutoff of 9.9980000000
  NonLocalECPComponent::resize_warrays 
    Non-local pseudopotential parameters
    Maximum angular mementum = 0
    Number of non-local channels = 1
       l(0)=0
    Cutoff radius = 1.3100000000
    Spherical grids and weights: 
             1.0000000000      0.0000000000      0.0000000000        0.0833333333
            -1.0000000000      0.0000000000      0.0000000000        0.0833333333
             0.4472135955      0.8944271910      0.0000000000        0.0833333333
            -0.4472135955      0.7236067977      0.5257311121        0.0833333333
             0.4472135955      0.2763932023      0.8506508084        0.0833333333
            -0.4472135955     -0.2763932023      0.8506508084        0.0833333333
             0.4472135955     -0.7236067977      0.5257311121        0.0833333333
            -0.4472135955     -0.8944271910      0.0000000000        0.0833333333
             0.4472135955     -0.7236067977     -0.5257311121        0.0833333333
            -0.4472135955     -0.2763932023     -0.8506508084        0.0833333333
             0.4472135955      0.2763932023     -0.8506508084        0.0833333333
            -0.4472135955      0.7236067977     -0.5257311121        0.0833333333
    Maximum cutoff radius 1.3100000000
  ... ParticleSet::addTable Reuse Table #1 ion0_e
  QMCHamiltonian::addOperator LocalECP to H, physical Hamiltonian 
  ... ParticleSet::addTable Reuse Table #1 ion0_e
  ... ParticleSet::addTable Reuse Table #1 ion0_e

  Using NonLocalECP potential 
    Maximum grid on a sphere for NonLocalECPotential: 12
  QMCHamiltonian::addOperator NonLocalECP to H, physical Hamiltonian 
QMCHamiltonian::addOperatorType added type pseudo named PseudoPot

  QMCHamiltonian::add2WalkerProperty added
    4 to P::PropertyList 
    0 to P::Collectables 
    starting Index of the observables in P::PropertyList = 9
  Hamiltonian disables VirtualMoves
ParticleSetPool::randomize 
<init source="ion0" target="e">
</init>
=========================================================
 Summary of QMC systems 
=========================================================
ParticleSetPool has: 

  ParticleSet e : 0 4 6 

    6

    u  8.5806651271e+00  8.8875544462e+00  9.7012019988e+00
    u  1.0291339741e+01  1.0152072516e+01  8.7136001216e+00
    u  9.0524917864e+00  9.2602311857e+00  8.9107745399e+00
    u  9.5267320974e+00  9.7813701856e+00  1.1624840933e+01
    d  9.3600327676e+00  9.9591523924e+00  1.0171426079e+01
    d  6.7788889327e+00  1.2140630647e+01  9.5050824568e+00

  ParticleSet ion0 : 0 1 

    1

    O  9.4486306700e+00  9.4486316100e+00  9.4486325500e+00

  Hamiltonian h0
  Kinetic         Kinetic energy
  ElecElec        CoulombAA source/target e

  LocalECP        LocalECPotential: ion0
  NonLocalECP     NonLocalECPotential: ion0
Loop execution max-interations = 12

=========================================================
  Start QMCFixedSampleLinearOptimize
  File Root O.q0.opt.s000 append = no 
=========================================================
  Skip QMCDriver::putQMCInfo 
  Resetting Properties of the walkers 1 x 13
  Adding 16 walkers to 0 existing sets
  Total number of walkers: 5.1200000000e+02
  Total weight: 5.1200000000e+02

=========================================================
  Start VMCSingleOMP
  File Root O.q0.opt.s000 append = no 
=========================================================
  Using the current 16 walkers.
  Total number of walkers: 5.1200000000e+02
  Total weight: 5.1200000000e+02
  Resetting Properties of the walkers 1 x 13

<vmc function="put">
  qmc_counter=0  my_counter=0
  time step      = 3.0000000000e-01
  blocks         = 200
  steps          = 1
  substeps       = 1
  current        = 0
  target samples = 5.1200000000e+04
  walkers/mpi    = 16

  stepsbetweensamples = 2
<parameter name="blocks" condition="int">200</parameter>
<parameter name="check_properties" condition="int">100</parameter>
<parameter name="checkproperties" condition="int">100</parameter>
<parameter name="current" condition="int">0</parameter>
<parameter name="dmcwalkersperthread" condition="real">1.0000000000e+02</parameter>
<parameter name="maxcpusecs" condition="real">3.6000000000e+05</parameter>
<parameter name="record_configs" condition="int">0</parameter>
<parameter name="record_walkers" condition="int">2</parameter>
<parameter name="recordconfigs" condition="int">0</parameter>
<parameter name="recordwalkers" condition="int">2</parameter>
<parameter name="rewind" condition="int">0</parameter>
<parameter name="samples" condition="real">5.1200000000e+04</parameter>
<parameter name="samplesperthread" condition="real">1.0000000000e+02</parameter>
<parameter name="steps" condition="int">1</parameter>
<parameter name="stepsbetweensamples" condition="int">2</parameter>
<parameter name="store_configs" condition="int">0</parameter>
<parameter name="storeconfigs" condition="int">0</parameter>
<parameter name="sub_steps" condition="int">1</parameter>
<parameter name="substeps" condition="int">1</parameter>
<parameter name="tau" condition="au">3.0000000000e-01</parameter>
<parameter name="time_step" condition="au">3.0000000000e-01</parameter>
<parameter name="timestep" condition="au">3.0000000000e-01</parameter>
<parameter name="use_drift" condition="string">no</parameter>
<parameter name="usedrift" condition="string">no</parameter>
<parameter name="walkers" condition="int">16</parameter>
<parameter name="warmup_steps" condition="int">50</parameter>
<parameter name="warmupsteps" condition="int">50</parameter>
  DumpConfig==false Nothing (configurations, state) will be saved.
  Walker Samples are dumped every 2 steps.
</vmc>
  Adding a default LocalEnergyEstimator for the MainEstimator 
 Using QMCCostFunctionOMP::QMCCostFunctionOMP
  Adding a default LocalEnergyEstimator for the MainEstimator 
<optimization-report>
<vmc stage="main" blocks="200">
  CloneManager::makeClones makes 16 clones for W/Psi/H.
  Cloning methods for both Psi and H are used
  Initial partition of walkers 0 1 2 3 4 5 6 7 8 9 10 11 12 13 14 15 16 
  PbyP moves with |psi^2|, using VMCUpdatePbyP

  Total Sample Size   =51200
  Walker distribution on root = 0 1 2 3 4 5 6 7 8 9 10 11 12 13 14 15 16 
  Anonymous Buffer size per walker 389
MEMORY increase 0 MB VMCSingleOMP::resetRun
====================================================
  SimpleFixedNodeBranch::finalize after a VMC block
    QMC counter        = 0
    time step          = 0.3
    reference energy   = -15.8456
    reference variance = 1.05393
====================================================
  Execution time = 5.5587140325e+00
</vmc>
<opt stage="setup">
  <log>
   Reading configurations from h5FileRoot O.q0.opt.s000
  QMCCostFunctionOMP is created with 16
   Loading configuration from MCWalkerConfiguration::SampleStack 
    number of walkers before load 16
  Using Nonlocal PP in Opt: NonLocalECP
    number of walkers after load: 100 100 100 100 100 100 100 100 100 100 100 100 100 100 100 100 
Using buffers for temporary storage in QMCCostFunction.

Memory usage: 
Linear method (approx matrix usage: 4*N^2): 1.8432000000e-02 MB
Deriv,HDerivRecord:      9.2160000000e-01 MB
Buffer memory cost:     MB/walker       MB/total 
Orbitals only:           1.6000000000e-04      2.5600000000e-01
Orbitals + dervs:        5.7600000000e-04      9.2160000000e-01
Inverse:                 0.0000000000e+00      0.0000000000e+00
Determinants:            0.0000000000e+00      0.0000000000e+00
  VMC Eavg = -1.5740798777e+01
  VMC Evar = 1.2655186572e+00
  Total weights = 5.1200000000e+04
  Execution time = 1.8015055000e-01
  </log>
</opt>
<opt stage="main" walkers="51200">
  <log>
Iteration: 1/1
od_largest 6.8219152643e+01
  stabilityBase -1.6000000000e+01
  stabilizerScale 1.0000000000e+00
  Using XS:-1.6000000000e+01 0 0
  Good Step. Largest LM parameter change:5.7703507187e-01
 OldCost: 1.2655186572e+00 NewCost: 7.2443875597e-01 Delta Cost:-5.4107990118e-01
      Current ene:     -1.5843739612e+01
      Current var:     6.8219982886e-01
      Current ene_urw:     -1.5796047314e+01
      Current var_urw: 7.2443875597e-01
Setting new Parameters
ERROR   Execution time = 1.1546454929e+01
  </log>
  <optVariables href="O.q0.opt.s000.opt.xml">
uu_0 -1.4368623058e-01 1 1  ON 0
uu_1 -3.5310402773e-01 1 1  ON 1
uu_2 -3.9456804412e-01 1 1  ON 2
uu_3 -4.2035420261e-01 1 1  ON 3
uu_4 -4.2177218188e-01 1 1  ON 4
uu_5 -4.2934025614e-01 1 1  ON 5
uu_6 -4.2424655372e-01 1 1  ON 6
uu_7 -3.5508540874e-01 1 1  ON 7
ud_0 2.0728631959e-01 1 1  ON 8
ud_1 -4.3015812873e-02 1 1  ON 9
ud_2 -7.5335179629e-02 1 1  ON 10
ud_3 -1.0037570823e-01 1 1  ON 11
ud_4 -9.6187572496e-02 1 1  ON 12
ud_5 -1.0961967267e-01 1 1  ON 13
ud_6 -9.1532103453e-02 1 1  ON 14
ud_7 -1.1693799744e-01 1 1  ON 15
eO_0 -5.7703507187e-01 1 1  ON 16
eO_1 -4.7134715803e-01 1 1  ON 17
eO_2 -3.4091344776e-01 1 1  ON 18
eO_3 -2.1413648589e-01 1 1  ON 19
eO_4 -1.3494237908e-01 1 1  ON 20
eO_5 -7.3656432033e-02 1 1  ON 21
eO_6 -4.2953399091e-02 1 1  ON 22
eO_7 -1.0373235895e-02 1 1  ON 23
  </optVariables>
   Restore the number of walkers to 16, removing 84 walkers.
</opt>
</optimization-report>
  QMC Execution time = 1.1568727857e+01 secs 
  Reusing QMCFixedSampleLinearOptimize
 Using QMCCostFunctionOMP::QMCCostFunctionOMP

=========================================================
  Start QMCFixedSampleLinearOptimize
  File Root O.q0.opt.s001 append = no 
=========================================================
  Skip QMCDriver::putQMCInfo 
  Resetting Properties of the walkers 1 x 13

=========================================================
  Start VMCSingleOMP
  File Root O.q0.opt.s001 append = no 
=========================================================
Using existing walkers 
  Resetting Properties of the walkers 1 x 13

<vmc function="put">
  qmc_counter=1  my_counter=1
  time step      = 3.0000000000e-01
  blocks         = 200
  steps          = 1
  substeps       = 1
  current        = 0
  target samples = 5.1200000000e+04
  walkers/mpi    = 16

  stepsbetweensamples = 2
<parameter name="blocks" condition="int">200</parameter>
<parameter name="check_properties" condition="int">100</parameter>
<parameter name="checkproperties" condition="int">100</parameter>
<parameter name="current" condition="int">0</parameter>
<parameter name="dmcwalkersperthread" condition="real">1.0000000000e+02</parameter>
<parameter name="maxcpusecs" condition="real">3.6000000000e+05</parameter>
<parameter name="record_configs" condition="int">0</parameter>
<parameter name="record_walkers" condition="int">2</parameter>
<parameter name="recordconfigs" condition="int">0</parameter>
<parameter name="recordwalkers" condition="int">2</parameter>
<parameter name="rewind" condition="int">0</parameter>
<parameter name="samples" condition="real">5.1200000000e+04</parameter>
<parameter name="samplesperthread" condition="real">1.0000000000e+02</parameter>
<parameter name="steps" condition="int">1</parameter>
<parameter name="stepsbetweensamples" condition="int">2</parameter>
<parameter name="store_configs" condition="int">0</parameter>
<parameter name="storeconfigs" condition="int">0</parameter>
<parameter name="sub_steps" condition="int">1</parameter>
<parameter name="substeps" condition="int">1</parameter>
<parameter name="tau" condition="au">3.0000000000e-01</parameter>
<parameter name="time_step" condition="au">3.0000000000e-01</parameter>
<parameter name="timestep" condition="au">3.0000000000e-01</parameter>
<parameter name="use_drift" condition="string">no</parameter>
<parameter name="usedrift" condition="string">no</parameter>
<parameter name="walkers" condition="int">1</parameter>
<parameter name="warmup_steps" condition="int">50</parameter>
<parameter name="warmupsteps" condition="int">50</parameter>
  DumpConfig==false Nothing (configurations, state) will be saved.
  Walker Samples are dumped every 2 steps.
</vmc>
<optimization-report>
<vmc stage="main" blocks="200">
  Cannot make clones again. Use existing 16 clones
  Initial partition of walkers 0 1 2 3 4 5 6 7 8 9 10 11 12 13 14 15 16 
  Total Sample Size   =51200
  Walker distribution on root = 0 1 2 3 4 5 6 7 8 9 10 11 12 13 14 15 16 
====================================================
  SimpleFixedNodeBranch::finalize after a VMC block
    QMC counter        = 1
    time step          = 0.3
    reference energy   = -15.8534
    reference variance = 0.86236
====================================================
  Execution time = 1.3248118068e+01
</vmc>
<opt stage="setup">
  <log>
   Reading configurations from h5FileRoot O.q0.opt.s001
  QMCCostFunctionOMP is created with 16
   Loading configuration from MCWalkerConfiguration::SampleStack 
    number of walkers before load 16
  Using Nonlocal PP in Opt: NonLocalECP
    number of walkers after load: 100 100 100 100 100 100 100 100 100 100 100 100 100 100 100 100 
Using buffers for temporary storage in QMCCostFunction.

Memory usage: 
Linear method (approx matrix usage: 4*N^2): 1.8432000000e-02 MB
Deriv,HDerivRecord:      9.2160000000e-01 MB
Buffer memory cost:     MB/walker       MB/total 
Orbitals only:           1.6000000000e-04      2.5600000000e-01
Orbitals + dervs:        5.7600000000e-04      9.2160000000e-01
Inverse:                 0.0000000000e+00      0.0000000000e+00
Determinants:            0.0000000000e+00      0.0000000000e+00
  VMC Eavg = -1.5861291435e+01
  VMC Evar = 7.2229830632e-01
  Total weights = 5.1200000000e+04
  Execution time = 2.2814583588e+00
  </log>
</opt>
<opt stage="main" walkers="51200">
  <log>
Iteration: 1/1
od_largest 4.3292031280e+01
  stabilityBase -1.6000000000e+01
  stabilizerScale 1.0000000000e+00
  Using XS:-1.6000000000e+01 0 0
  Good Step. Largest LM parameter change:6.0556152438e-01
 OldCost: 7.2229830632e-01 NewCost: 6.9833678217e-01 Delta Cost:-2.3961524143e-02
      Current ene:     -1.5874385787e+01
      Current var:     6.9204813688e-01
      Current ene_urw:     -1.5865218962e+01
      Current var_urw: 6.9833678217e-01
Setting new Parameters
ERROR   Execution time = 3.3457816080e+01
  </log>
  <optVariables href="O.q0.opt.s001.opt.xml">
uu_0 4.4949745297e-01 1 1  ON 0
uu_1 2.5245749665e-01 1 1  ON 1
uu_2 1.6353774150e-01 1 1  ON 2
uu_3 1.3705359795e-01 1 1  ON 3
uu_4 1.2842752740e-01 1 1  ON 4
uu_5 1.2859990988e-01 1 1  ON 5
uu_6 1.0893842706e-01 1 1  ON 6
uu_7 2.2108814597e-01 1 1  ON 7
ud_0 3.1091542958e-01 1 1  ON 8
ud_1 3.9939927651e-02 1 1  ON 9
ud_2 -3.8855135379e-02 1 1  ON 10
ud_3 -6.1525039692e-02 1 1  ON 11
ud_4 -6.7266640135e-02 1 1  ON 12
ud_5 -6.8329187584e-02 1 1  ON 13
ud_6 -3.6922684683e-02 1 1  ON 14
ud_7 -6.0439790172e-02 1 1  ON 15
eO_0 -7.8248434545e-01 1 1  ON 16
eO_1 -6.6856410486e-01 1 1  ON 17
eO_2 -4.8995993156e-01 1 1  ON 18
eO_3 -3.0926577718e-01 1 1  ON 19
eO_4 -1.8138901239e-01 1 1  ON 20
eO_5 -9.4122762637e-02 1 1  ON 21
eO_6 -4.0766615355e-02 1 1  ON 22
eO_7 -9.2939265618e-03 1 1  ON 23
  </optVariables>
   Restore the number of walkers to 16, removing 84 walkers.
</opt>
</optimization-report>
  QMC Execution time = 3.3484391466e+01 secs 
  Reusing QMCFixedSampleLinearOptimize
 Using QMCCostFunctionOMP::QMCCostFunctionOMP

=========================================================
  Start QMCFixedSampleLinearOptimize
  File Root O.q0.opt.s002 append = no 
=========================================================
  Skip QMCDriver::putQMCInfo 
  Resetting Properties of the walkers 1 x 13

=========================================================
  Start VMCSingleOMP
  File Root O.q0.opt.s002 append = no 
=========================================================
Using existing walkers 
  Resetting Properties of the walkers 1 x 13

<vmc function="put">
  qmc_counter=2  my_counter=2
  time step      = 3.0000000000e-01
  blocks         = 200
  steps          = 1
  substeps       = 1
  current        = 0
  target samples = 5.1200000000e+04
  walkers/mpi    = 16

  stepsbetweensamples = 2
<parameter name="blocks" condition="int">200</parameter>
<parameter name="check_properties" condition="int">100</parameter>
<parameter name="checkproperties" condition="int">100</parameter>
<parameter name="current" condition="int">0</parameter>
<parameter name="dmcwalkersperthread" condition="real">1.0000000000e+02</parameter>
<parameter name="maxcpusecs" condition="real">3.6000000000e+05</parameter>
<parameter name="record_configs" condition="int">0</parameter>
<parameter name="record_walkers" condition="int">2</parameter>
<parameter name="recordconfigs" condition="int">0</parameter>
<parameter name="recordwalkers" condition="int">2</parameter>
<parameter name="rewind" condition="int">0</parameter>
<parameter name="samples" condition="real">5.1200000000e+04</parameter>
<parameter name="samplesperthread" condition="real">1.0000000000e+02</parameter>
<parameter name="steps" condition="int">1</parameter>
<parameter name="stepsbetweensamples" condition="int">2</parameter>
<parameter name="store_configs" condition="int">0</parameter>
<parameter name="storeconfigs" condition="int">0</parameter>
<parameter name="sub_steps" condition="int">1</parameter>
<parameter name="substeps" condition="int">1</parameter>
<parameter name="tau" condition="au">3.0000000000e-01</parameter>
<parameter name="time_step" condition="au">3.0000000000e-01</parameter>
<parameter name="timestep" condition="au">3.0000000000e-01</parameter>
<parameter name="use_drift" condition="string">no</parameter>
<parameter name="usedrift" condition="string">no</parameter>
<parameter name="walkers" condition="int">1</parameter>
<parameter name="warmup_steps" condition="int">50</parameter>
<parameter name="warmupsteps" condition="int">50</parameter>
  DumpConfig==false Nothing (configurations, state) will be saved.
  Walker Samples are dumped every 2 steps.
</vmc>
<optimization-report>
<vmc stage="main" blocks="200">
  Cannot make clones again. Use existing 16 clones
  Initial partition of walkers 0 1 2 3 4 5 6 7 8 9 10 11 12 13 14 15 16 
  Total Sample Size   =51200
  Walker distribution on root = 0 1 2 3 4 5 6 7 8 9 10 11 12 13 14 15 16 
====================================================
  SimpleFixedNodeBranch::finalize after a VMC block
    QMC counter        = 2
    time step          = 0.3
    reference energy   = -15.849
    reference variance = 0.767746
====================================================
  Execution time = 1.1812234221e+01
</vmc>
<opt stage="setup">
  <log>
   Reading configurations from h5FileRoot O.q0.opt.s002
  QMCCostFunctionOMP is created with 16
   Loading configuration from MCWalkerConfiguration::SampleStack 
    number of walkers before load 16
  Using Nonlocal PP in Opt: NonLocalECP
    number of walkers after load: 100 100 100 100 100 100 100 100 100 100 100 100 100 100 100 100 
Using buffers for temporary storage in QMCCostFunction.

Memory usage: 
Linear method (approx matrix usage: 4*N^2): 1.8432000000e-02 MB
Deriv,HDerivRecord:      9.2160000000e-01 MB
Buffer memory cost:     MB/walker       MB/total 
Orbitals only:           1.6000000000e-04      2.5600000000e-01
Orbitals + dervs:        5.7600000000e-04      9.2160000000e-01
Inverse:                 0.0000000000e+00      0.0000000000e+00
Determinants:            0.0000000000e+00      0.0000000000e+00
  VMC Eavg = -1.5859354451e+01
  VMC Evar = 8.0649629434e-01
  Total weights = 5.1200000000e+04
  Execution time = 1.7413350675e+00
  </log>
</opt>
<opt stage="main" walkers="51200">
  <log>
Iteration: 1/1
od_largest 3.2461111424e+01
  stabilityBase -1.6000000000e+01
  stabilizerScale 1.0000000000e+00
  Using XS:-1.6000000000e+01 0 0
  Good Step. Largest LM parameter change:5.0117178872e-01
 OldCost: 8.0649629434e-01 NewCost: 8.0551871147e-01 Delta Cost:-9.7758287036e-04
      Current ene:     -1.5845338892e+01
      Current var:     1.1277572278e+00
      Current ene_urw:     -1.5859508378e+01
      Current var_urw: 8.0551871147e-01
Setting new Parameters
ERROR   Execution time = 2.8390751344e+01
  </log>
  <optVariables href="O.q0.opt.s002.opt.xml">
uu_0 4.5255990870e-01 1 1  ON 0
uu_1 2.6220230391e-01 1 1  ON 1
uu_2 1.7816015547e-01 1 1  ON 2
uu_3 1.5471013898e-01 1 1  ON 3
uu_4 1.4807507522e-01 1 1  ON 4
uu_5 1.3720893615e-01 1 1  ON 5
uu_6 1.7704415964e-01 1 1  ON 6
uu_7 -6.4318871300e-02 1 1  ON 7
ud_0 6.7093534385e-01 1 1  ON 8
ud_1 4.0399005340e-01 1 1  ON 9
ud_2 3.3312976192e-01 1 1  ON 10
ud_3 3.1242539279e-01 1 1  ON 11
ud_4 3.0454059403e-01 1 1  ON 12
ud_5 3.0817912404e-01 1 1  ON 13
ud_6 3.1808929291e-01 1 1  ON 14
ud_7 4.4073199855e-01 1 1  ON 15
eO_0 -7.3288995195e-01 1 1  ON 16
eO_1 -6.2311223930e-01 1 1  ON 17
eO_2 -4.5193019454e-01 1 1  ON 18
eO_3 -2.8247819310e-01 1 1  ON 19
eO_4 -1.6430066050e-01 1 1  ON 20
eO_5 -8.3235418816e-02 1 1  ON 21
eO_6 -3.6104162270e-02 1 1  ON 22
eO_7 -6.2527669275e-03 1 1  ON 23
  </optVariables>
   Restore the number of walkers to 16, removing 84 walkers.
</opt>
</optimization-report>
  QMC Execution time = 2.8418770829e+01 secs 
  Reusing QMCFixedSampleLinearOptimize
 Using QMCCostFunctionOMP::QMCCostFunctionOMP

=========================================================
  Start QMCFixedSampleLinearOptimize
  File Root O.q0.opt.s003 append = no 
=========================================================
  Skip QMCDriver::putQMCInfo 
  Resetting Properties of the walkers 1 x 13

=========================================================
  Start VMCSingleOMP
  File Root O.q0.opt.s003 append = no 
=========================================================
Using existing walkers 
  Resetting Properties of the walkers 1 x 13

<vmc function="put">
  qmc_counter=3  my_counter=3
  time step      = 3.0000000000e-01
  blocks         = 200
  steps          = 1
  substeps       = 1
  current        = 0
  target samples = 5.1200000000e+04
  walkers/mpi    = 16

  stepsbetweensamples = 2
<parameter name="blocks" condition="int">200</parameter>
<parameter name="check_properties" condition="int">100</parameter>
<parameter name="checkproperties" condition="int">100</parameter>
<parameter name="current" condition="int">0</parameter>
<parameter name="dmcwalkersperthread" condition="real">1.0000000000e+02</parameter>
<parameter name="maxcpusecs" condition="real">3.6000000000e+05</parameter>
<parameter name="record_configs" condition="int">0</parameter>
<parameter name="record_walkers" condition="int">2</parameter>
<parameter name="recordconfigs" condition="int">0</parameter>
<parameter name="recordwalkers" condition="int">2</parameter>
<parameter name="rewind" condition="int">0</parameter>
<parameter name="samples" condition="real">5.1200000000e+04</parameter>
<parameter name="samplesperthread" condition="real">1.0000000000e+02</parameter>
<parameter name="steps" condition="int">1</parameter>
<parameter name="stepsbetweensamples" condition="int">2</parameter>
<parameter name="store_configs" condition="int">0</parameter>
<parameter name="storeconfigs" condition="int">0</parameter>
<parameter name="sub_steps" condition="int">1</parameter>
<parameter name="substeps" condition="int">1</parameter>
<parameter name="tau" condition="au">3.0000000000e-01</parameter>
<parameter name="time_step" condition="au">3.0000000000e-01</parameter>
<parameter name="timestep" condition="au">3.0000000000e-01</parameter>
<parameter name="use_drift" condition="string">no</parameter>
<parameter name="usedrift" condition="string">no</parameter>
<parameter name="walkers" condition="int">1</parameter>
<parameter name="warmup_steps" condition="int">50</parameter>
<parameter name="warmupsteps" condition="int">50</parameter>
  DumpConfig==false Nothing (configurations, state) will be saved.
  Walker Samples are dumped every 2 steps.
</vmc>
<optimization-report>
<vmc stage="main" blocks="200">
  Cannot make clones again. Use existing 16 clones
  Initial partition of walkers 0 1 2 3 4 5 6 7 8 9 10 11 12 13 14 15 16 
  Total Sample Size   =51200
  Walker distribution on root = 0 1 2 3 4 5 6 7 8 9 10 11 12 13 14 15 16 
====================================================
  SimpleFixedNodeBranch::finalize after a VMC block
    QMC counter        = 3
    time step          = 0.3
    reference energy   = -15.8461
    reference variance = 0.799612
====================================================
  Execution time = 1.2068360445e+01
</vmc>
<opt stage="setup">
  <log>
   Reading configurations from h5FileRoot O.q0.opt.s003
  QMCCostFunctionOMP is created with 16
   Loading configuration from MCWalkerConfiguration::SampleStack 
    number of walkers before load 16
  Using Nonlocal PP in Opt: NonLocalECP
    number of walkers after load: 100 100 100 100 100 100 100 100 100 100 100 100 100 100 100 100 
Using buffers for temporary storage in QMCCostFunction.

Memory usage: 
Linear method (approx matrix usage: 4*N^2): 1.8432000000e-02 MB
Deriv,HDerivRecord:      9.2160000000e-01 MB
Buffer memory cost:     MB/walker       MB/total 
Orbitals only:           1.6000000000e-04      2.5600000000e-01
Orbitals + dervs:        5.7600000000e-04      9.2160000000e-01
Inverse:                 0.0000000000e+00      0.0000000000e+00
Determinants:            0.0000000000e+00      0.0000000000e+00
  VMC Eavg = -1.5861647245e+01
  VMC Evar = 6.6821241388e-01
  Total weights = 5.1200000000e+04
  Execution time = 1.8564093350e+00
  </log>
</opt>
<opt stage="main" walkers="51200">
  <log>
Iteration: 1/1
od_largest 1.4201953773e+01
  stabilityBase -1.6000000000e+01
  stabilizerScale 1.0000000000e+00
  Using XS:-1.6000000000e+01 0 0
  Good Step. Largest LM parameter change:5.5267483270e-02
 OldCost: 6.6821241388e-01 NewCost: 6.6797703487e-01 Delta Cost:-2.3537901148e-04
      Current ene:     -1.5862849527e+01
      Current var:     6.6624932341e-01
      Current ene_urw:     -1.5861637229e+01
      Current var_urw: 6.6797703487e-01
Setting new Parameters
ERROR   Execution time = 2.9544267859e+01
  </log>
  <optVariables href="O.q0.opt.s003.opt.xml">
uu_0 4.3283264845e-01 1 1  ON 0
uu_1 2.4044231240e-01 1 1  ON 1
uu_2 1.5304243831e-01 1 1  ON 2
uu_3 1.2757616496e-01 1 1  ON 3
uu_4 1.2067971757e-01 1 1  ON 4
uu_5 1.1360374258e-01 1 1  ON 5
uu_6 1.4314698502e-01 1 1  ON 6
uu_7 -6.3672048319e-02 1 1  ON 7
ud_0 6.3143154853e-01 1 1  ON 8
ud_1 3.6197556545e-01 1 1  ON 9
ud_2 2.8630766504e-01 1 1  ON 10
ud_3 2.6459007373e-01 1 1  ON 11
ud_4 2.5749733171e-01 1 1  ON 12
ud_5 2.6244834587e-01 1 1  ON 13
ud_6 2.7131109296e-01 1 1  ON 14
ud_7 3.8546451528e-01 1 1  ON 15
eO_0 -7.5550874827e-01 1 1  ON 16
eO_1 -6.4349743712e-01 1 1  ON 17
eO_2 -4.6775195634e-01 1 1  ON 18
eO_3 -2.9183035590e-01 1 1  ON 19
eO_4 -1.6787457618e-01 1 1  ON 20
eO_5 -8.3077517886e-02 1 1  ON 21
eO_6 -3.3196096217e-02 1 1  ON 22
eO_7 -1.5030204353e-03 1 1  ON 23
  </optVariables>
   Restore the number of walkers to 16, removing 84 walkers.
</opt>
</optimization-report>
  QMC Execution time = 2.9571018554e+01 secs 
  Reusing QMCFixedSampleLinearOptimize
 Using QMCCostFunctionOMP::QMCCostFunctionOMP

=========================================================
  Start QMCFixedSampleLinearOptimize
  File Root O.q0.opt.s004 append = no 
=========================================================
  Skip QMCDriver::putQMCInfo 
  Resetting Properties of the walkers 1 x 13

=========================================================
  Start VMCSingleOMP
  File Root O.q0.opt.s004 append = no 
=========================================================
Using existing walkers 
  Resetting Properties of the walkers 1 x 13

<vmc function="put">
  qmc_counter=4  my_counter=4
  time step      = 3.0000000000e-01
  blocks         = 200
  steps          = 1
  substeps       = 1
  current        = 0
  target samples = 5.1200000000e+04
  walkers/mpi    = 16

  stepsbetweensamples = 2
<parameter name="blocks" condition="int">200</parameter>
<parameter name="check_properties" condition="int">100</parameter>
<parameter name="checkproperties" condition="int">100</parameter>
<parameter name="current" condition="int">0</parameter>
<parameter name="dmcwalkersperthread" condition="real">1.0000000000e+02</parameter>
<parameter name="maxcpusecs" condition="real">3.6000000000e+05</parameter>
<parameter name="record_configs" condition="int">0</parameter>
<parameter name="record_walkers" condition="int">2</parameter>
<parameter name="recordconfigs" condition="int">0</parameter>
<parameter name="recordwalkers" condition="int">2</parameter>
<parameter name="rewind" condition="int">0</parameter>
<parameter name="samples" condition="real">5.1200000000e+04</parameter>
<parameter name="samplesperthread" condition="real">1.0000000000e+02</parameter>
<parameter name="steps" condition="int">1</parameter>
<parameter name="stepsbetweensamples" condition="int">2</parameter>
<parameter name="store_configs" condition="int">0</parameter>
<parameter name="storeconfigs" condition="int">0</parameter>
<parameter name="sub_steps" condition="int">1</parameter>
<parameter name="substeps" condition="int">1</parameter>
<parameter name="tau" condition="au">3.0000000000e-01</parameter>
<parameter name="time_step" condition="au">3.0000000000e-01</parameter>
<parameter name="timestep" condition="au">3.0000000000e-01</parameter>
<parameter name="use_drift" condition="string">no</parameter>
<parameter name="usedrift" condition="string">no</parameter>
<parameter name="walkers" condition="int">1</parameter>
<parameter name="warmup_steps" condition="int">50</parameter>
<parameter name="warmupsteps" condition="int">50</parameter>
  DumpConfig==false Nothing (configurations, state) will be saved.
  Walker Samples are dumped every 2 steps.
</vmc>
<optimization-report>
<vmc stage="main" blocks="200">
  Cannot make clones again. Use existing 16 clones
  Initial partition of walkers 0 1 2 3 4 5 6 7 8 9 10 11 12 13 14 15 16 
  Total Sample Size   =51200
  Walker distribution on root = 0 1 2 3 4 5 6 7 8 9 10 11 12 13 14 15 16 
====================================================
  SimpleFixedNodeBranch::finalize after a VMC block
    QMC counter        = 4
    time step          = 0.3
    reference energy   = -15.8532
    reference variance = 0.810047
====================================================
  Execution time = 1.1804797235e+01
</vmc>
<opt stage="setup">
  <log>
   Reading configurations from h5FileRoot O.q0.opt.s004
  QMCCostFunctionOMP is created with 16
   Loading configuration from MCWalkerConfiguration::SampleStack 
    number of walkers before load 16
  Using Nonlocal PP in Opt: NonLocalECP
    number of walkers after load: 100 100 100 100 100 100 100 100 100 100 100 100 100 100 100 100 
Using buffers for temporary storage in QMCCostFunction.

Memory usage: 
Linear method (approx matrix usage: 4*N^2): 1.8432000000e-02 MB
Deriv,HDerivRecord:      9.2160000000e-01 MB
Buffer memory cost:     MB/walker       MB/total 
Orbitals only:           1.6000000000e-04      2.5600000000e-01
Orbitals + dervs:        5.7600000000e-04      9.2160000000e-01
Inverse:                 0.0000000000e+00      0.0000000000e+00
Determinants:            0.0000000000e+00      0.0000000000e+00
  VMC Eavg = -1.5861719471e+01
  VMC Evar = 7.0106275099e-01
  Total weights = 5.1200000000e+04
  Execution time = 1.7975811588e+00
  </log>
</opt>
<opt stage="main" walkers="51200">
  <log>
Iteration: 1/1
od_largest 3.6595698854e+01
  stabilityBase -1.6000000000e+01
  stabilizerScale 1.0000000000e+00
  Using XS:-1.6000000000e+01 0 0
  Good Step. Largest LM parameter change:3.4509464245e-01
 OldCost: 7.0106275099e-01 NewCost: 7.0078055426e-01 Delta Cost:-2.8219672877e-04
      Current ene:     -1.5862998438e+01
      Current var:     6.9945976038e-01
      Current ene_urw:     -1.5861787146e+01
      Current var_urw: 7.0078055426e-01
Setting new Parameters
ERROR   Execution time = 2.8297059512e+01
  </log>
  <optVariables href="O.q0.opt.s004.opt.xml">
uu_0 1.1387682670e-01 1 1  ON 0
uu_1 -8.1764006414e-02 1 1  ON 1
uu_2 -1.7261142344e-01 1 1  ON 2
uu_3 -2.0022014367e-01 1 1  ON 3
uu_4 -2.0730774709e-01 1 1  ON 4
uu_5 -2.1165863808e-01 1 1  ON 5
uu_6 -1.7976419045e-01 1 1  ON 6
uu_7 -4.0876669077e-01 1 1  ON 7
ud_0 6.4963838965e-01 1 1  ON 8
ud_1 3.7815090727e-01 1 1  ON 9
ud_2 2.9704199377e-01 1 1  ON 10
ud_3 2.7427810652e-01 1 1  ON 11
ud_4 2.6752757360e-01 1 1  ON 12
ud_5 2.7551892910e-01 1 1  ON 13
ud_6 2.8519267411e-01 1 1  ON 14
ud_7 4.0095780731e-01 1 1  ON 15
eO_0 -7.8157331536e-01 1 1  ON 16
eO_1 -6.6596184678e-01 1 1  ON 17
eO_2 -4.8535648704e-01 1 1  ON 18
eO_3 -3.0237908282e-01 1 1  ON 19
eO_4 -1.7168281565e-01 1 1  ON 20
eO_5 -8.2297805307e-02 1 1  ON 21
eO_6 -2.9511074757e-02 1 1  ON 22
eO_7 2.4772180804e-03 1 1  ON 23
  </optVariables>
   Restore the number of walkers to 16, removing 84 walkers.
</opt>
</optimization-report>
  QMC Execution time = 2.8326088767e+01 secs 
  Reusing QMCFixedSampleLinearOptimize
 Using QMCCostFunctionOMP::QMCCostFunctionOMP

=========================================================
  Start QMCFixedSampleLinearOptimize
  File Root O.q0.opt.s005 append = no 
=========================================================
  Skip QMCDriver::putQMCInfo 
  Resetting Properties of the walkers 1 x 13

=========================================================
  Start VMCSingleOMP
  File Root O.q0.opt.s005 append = no 
=========================================================
Using existing walkers 
  Resetting Properties of the walkers 1 x 13

<vmc function="put">
  qmc_counter=5  my_counter=5
  time step      = 3.0000000000e-01
  blocks         = 200
  steps          = 1
  substeps       = 1
  current        = 0
  target samples = 5.1200000000e+04
  walkers/mpi    = 16

  stepsbetweensamples = 2
<parameter name="blocks" condition="int">200</parameter>
<parameter name="check_properties" condition="int">100</parameter>
<parameter name="checkproperties" condition="int">100</parameter>
<parameter name="current" condition="int">0</parameter>
<parameter name="dmcwalkersperthread" condition="real">1.0000000000e+02</parameter>
<parameter name="maxcpusecs" condition="real">3.6000000000e+05</parameter>
<parameter name="record_configs" condition="int">0</parameter>
<parameter name="record_walkers" condition="int">2</parameter>
<parameter name="recordconfigs" condition="int">0</parameter>
<parameter name="recordwalkers" condition="int">2</parameter>
<parameter name="rewind" condition="int">0</parameter>
<parameter name="samples" condition="real">5.1200000000e+04</parameter>
<parameter name="samplesperthread" condition="real">1.0000000000e+02</parameter>
<parameter name="steps" condition="int">1</parameter>
<parameter name="stepsbetweensamples" condition="int">2</parameter>
<parameter name="store_configs" condition="int">0</parameter>
<parameter name="storeconfigs" condition="int">0</parameter>
<parameter name="sub_steps" condition="int">1</parameter>
<parameter name="substeps" condition="int">1</parameter>
<parameter name="tau" condition="au">3.0000000000e-01</parameter>
<parameter name="time_step" condition="au">3.0000000000e-01</parameter>
<parameter name="timestep" condition="au">3.0000000000e-01</parameter>
<parameter name="use_drift" condition="string">no</parameter>
<parameter name="usedrift" condition="string">no</parameter>
<parameter name="walkers" condition="int">1</parameter>
<parameter name="warmup_steps" condition="int">50</parameter>
<parameter name="warmupsteps" condition="int">50</parameter>
  DumpConfig==false Nothing (configurations, state) will be saved.
  Walker Samples are dumped every 2 steps.
</vmc>
<optimization-report>
<vmc stage="main" blocks="200">
  Cannot make clones again. Use existing 16 clones
  Initial partition of walkers 0 1 2 3 4 5 6 7 8 9 10 11 12 13 14 15 16 
  Total Sample Size   =51200
  Walker distribution on root = 0 1 2 3 4 5 6 7 8 9 10 11 12 13 14 15 16 
====================================================
  SimpleFixedNodeBranch::finalize after a VMC block
    QMC counter        = 5
    time step          = 0.3
    reference energy   = -15.8874
    reference variance = 0.891915
====================================================
  Execution time = 1.1605410737e+01
</vmc>
<opt stage="setup">
  <log>
   Reading configurations from h5FileRoot O.q0.opt.s005
  QMCCostFunctionOMP is created with 16
   Loading configuration from MCWalkerConfiguration::SampleStack 
    number of walkers before load 16
  Using Nonlocal PP in Opt: NonLocalECP
    number of walkers after load: 100 100 100 100 100 100 100 100 100 100 100 100 100 100 100 100 
Using buffers for temporary storage in QMCCostFunction.

Memory usage: 
Linear method (approx matrix usage: 4*N^2): 1.8432000000e-02 MB
Deriv,HDerivRecord:      9.2160000000e-01 MB
Buffer memory cost:     MB/walker       MB/total 
Orbitals only:           1.6000000000e-04      2.5600000000e-01
Orbitals + dervs:        5.7600000000e-04      9.2160000000e-01
Inverse:                 0.0000000000e+00      0.0000000000e+00
Determinants:            0.0000000000e+00      0.0000000000e+00
  VMC Eavg = -1.5855797195e+01
  VMC Evar = 6.9538522412e-01
  Total weights = 5.1200000000e+04
  Execution time = 1.7784695212e+00
  </log>
</opt>
<opt stage="main" walkers="51200">
  <log>
Iteration: 1/1
od_largest 3.2885347218e+01
  stabilityBase -1.6000000000e+01
  stabilizerScale 1.0000000000e+00
  Using XS:-1.6000000000e+01 0 0
  Good Step. Largest LM parameter change:6.8779029815e-01
 OldCost: 6.9538522411e-01 NewCost: 6.9419186712e-01 Delta Cost:-1.1933569922e-03
      Current ene:     -1.5858936168e+01
      Current var:     6.8594430409e-01
      Current ene_urw:     -1.5856349916e+01
      Current var_urw: 6.9419186712e-01
Setting new Parameters
ERROR   Execution time = 2.7809224328e+01
  </log>
  <optVariables href="O.q0.opt.s005.opt.xml">
uu_0 6.4076773310e-01 1 1  ON 0
uu_1 4.4093565620e-01 1 1  ON 1
uu_2 3.4403232413e-01 1 1  ON 2
uu_3 3.1119792834e-01 1 1  ON 3
uu_4 3.0410537939e-01 1 1  ON 4
uu_5 3.0783156394e-01 1 1  ON 5
uu_6 3.1317094778e-01 1 1  ON 6
uu_7 2.7902360737e-01 1 1  ON 7
ud_0 4.2247735249e-01 1 1  ON 8
ud_1 1.4668983836e-01 1 1  ON 9
ud_2 5.6498701695e-02 1 1  ON 10
ud_3 2.9889666398e-02 1 1  ON 11
ud_4 2.6217705999e-02 1 1  ON 12
ud_5 3.7150686285e-02 1 1  ON 13
ud_6 3.0119339393e-02 1 1  ON 14
ud_7 1.9886255672e-01 1 1  ON 15
eO_0 -8.3122598881e-01 1 1  ON 16
eO_1 -7.1168181838e-01 1 1  ON 17
eO_2 -5.2228192318e-01 1 1  ON 18
eO_3 -3.2654542960e-01 1 1  ON 19
eO_4 -1.8268118201e-01 1 1  ON 20
eO_5 -8.2549078191e-02 1 1  ON 21
eO_6 -2.5827995498e-02 1 1  ON 22
eO_7 6.9348193923e-03 1 1  ON 23
  </optVariables>
   Restore the number of walkers to 16, removing 84 walkers.
</opt>
</optimization-report>
  QMC Execution time = 2.7832029360e+01 secs 
  Reusing QMCFixedSampleLinearOptimize
 Using QMCCostFunctionOMP::QMCCostFunctionOMP

=========================================================
  Start QMCFixedSampleLinearOptimize
  File Root O.q0.opt.s006 append = no 
=========================================================
  Skip QMCDriver::putQMCInfo 
  Resetting Properties of the walkers 1 x 13

=========================================================
  Start VMCSingleOMP
  File Root O.q0.opt.s006 append = no 
=========================================================
Using existing walkers 
  Resetting Properties of the walkers 1 x 13

<vmc function="put">
  qmc_counter=6  my_counter=6
  time step      = 3.0000000000e-01
  blocks         = 200
  steps          = 1
  substeps       = 1
  current        = 0
  target samples = 5.1200000000e+04
  walkers/mpi    = 16

  stepsbetweensamples = 2
<parameter name="blocks" condition="int">200</parameter>
<parameter name="check_properties" condition="int">100</parameter>
<parameter name="checkproperties" condition="int">100</parameter>
<parameter name="current" condition="int">0</parameter>
<parameter name="dmcwalkersperthread" condition="real">1.0000000000e+02</parameter>
<parameter name="maxcpusecs" condition="real">3.6000000000e+05</parameter>
<parameter name="record_configs" condition="int">0</parameter>
<parameter name="record_walkers" condition="int">2</parameter>
<parameter name="recordconfigs" condition="int">0</parameter>
<parameter name="recordwalkers" condition="int">2</parameter>
<parameter name="rewind" condition="int">0</parameter>
<parameter name="samples" condition="real">5.1200000000e+04</parameter>
<parameter name="samplesperthread" condition="real">1.0000000000e+02</parameter>
<parameter name="steps" condition="int">1</parameter>
<parameter name="stepsbetweensamples" condition="int">2</parameter>
<parameter name="store_configs" condition="int">0</parameter>
<parameter name="storeconfigs" condition="int">0</parameter>
<parameter name="sub_steps" condition="int">1</parameter>
<parameter name="substeps" condition="int">1</parameter>
<parameter name="tau" condition="au">3.0000000000e-01</parameter>
<parameter name="time_step" condition="au">3.0000000000e-01</parameter>
<parameter name="timestep" condition="au">3.0000000000e-01</parameter>
<parameter name="use_drift" condition="string">no</parameter>
<parameter name="usedrift" condition="string">no</parameter>
<parameter name="walkers" condition="int">1</parameter>
<parameter name="warmup_steps" condition="int">50</parameter>
<parameter name="warmupsteps" condition="int">50</parameter>
  DumpConfig==false Nothing (configurations, state) will be saved.
  Walker Samples are dumped every 2 steps.
</vmc>
<optimization-report>
<vmc stage="main" blocks="200">
  Cannot make clones again. Use existing 16 clones
  Initial partition of walkers 0 1 2 3 4 5 6 7 8 9 10 11 12 13 14 15 16 
  Total Sample Size   =51200
  Walker distribution on root = 0 1 2 3 4 5 6 7 8 9 10 11 12 13 14 15 16 
====================================================
  SimpleFixedNodeBranch::finalize after a VMC block
    QMC counter        = 6
    time step          = 0.3
    reference energy   = -15.8612
    reference variance = 0.74355
====================================================
  Execution time = 1.1398138604e+01
</vmc>
<opt stage="setup">
  <log>
   Reading configurations from h5FileRoot O.q0.opt.s006
  QMCCostFunctionOMP is created with 16
   Loading configuration from MCWalkerConfiguration::SampleStack 
    number of walkers before load 16
  Using Nonlocal PP in Opt: NonLocalECP
    number of walkers after load: 100 100 100 100 100 100 100 100 100 100 100 100 100 100 100 100 
Using buffers for temporary storage in QMCCostFunction.

Memory usage: 
Linear method (approx matrix usage: 4*N^2): 1.8432000000e-02 MB
Deriv,HDerivRecord:      9.2160000000e-01 MB
Buffer memory cost:     MB/walker       MB/total 
Orbitals only:           1.6000000000e-04      2.5600000000e-01
Orbitals + dervs:        5.7600000000e-04      9.2160000000e-01
Inverse:                 0.0000000000e+00      0.0000000000e+00
Determinants:            0.0000000000e+00      0.0000000000e+00
  VMC Eavg = -1.5860878529e+01
  VMC Evar = 6.7709626744e-01
  Total weights = 5.1200000000e+04
  Execution time = 1.6971138425e+00
  </log>
</opt>
<opt stage="main" walkers="51200">
  <log>
Iteration: 1/1
od_largest 2.2894751841e+01
  stabilityBase -1.6000000000e+01
  stabilizerScale 1.0000000000e+00
  Using XS:-1.6000000000e+01 0 0
  Good Step. Largest LM parameter change:1.8038265048e-01
 OldCost: 6.7709626744e-01 NewCost: 6.7501251165e-01 Delta Cost:-2.0837557922e-03
      Current ene:     -1.5857411196e+01
      Current var:     6.7827385774e-01
      Current ene_urw:     -1.5861023517e+01
      Current var_urw: 6.7501251165e-01
Setting new Parameters
ERROR   Execution time = 2.7792851723e+01
  </log>
  <optVariables href="O.q0.opt.s006.opt.xml">
uu_0 7.8893216427e-01 1 1  ON 0
uu_1 5.9723434731e-01 1 1  ON 1
uu_2 5.0934286392e-01 1 1  ON 2
uu_3 4.8077545284e-01 1 1  ON 3
uu_4 4.7329609104e-01 1 1  ON 4
uu_5 4.6885247489e-01 1 1  ON 5
uu_6 4.9355359825e-01 1 1  ON 6
uu_7 4.4453234576e-01 1 1  ON 7
ud_0 4.7412076917e-01 1 1  ON 8
ud_1 2.0880274731e-01 1 1  ON 9
ud_2 1.3010272770e-01 1 1  ON 10
ud_3 1.0849693846e-01 1 1  ON 11
ud_4 1.0196148071e-01 1 1  ON 12
ud_5 1.1573418030e-01 1 1  ON 13
ud_6 9.4783477300e-02 1 1  ON 14
ud_7 2.8179070528e-01 1 1  ON 15
eO_0 -7.5356292420e-01 1 1  ON 16
eO_1 -6.4227152049e-01 1 1  ON 17
eO_2 -4.6438031871e-01 1 1  ON 18
eO_3 -2.8776918384e-01 1 1  ON 19
eO_4 -1.6088730281e-01 1 1  ON 20
eO_5 -7.1042884845e-02 1 1  ON 21
eO_6 -2.5600568414e-02 1 1  ON 22
eO_7 1.0452547902e-02 1 1  ON 23
  </optVariables>
   Restore the number of walkers to 16, removing 84 walkers.
</opt>
</optimization-report>
  QMC Execution time = 2.7815514167e+01 secs 
  Reusing QMCFixedSampleLinearOptimize
 Using QMCCostFunctionOMP::QMCCostFunctionOMP

=========================================================
  Start QMCFixedSampleLinearOptimize
  File Root O.q0.opt.s007 append = no 
=========================================================
  Skip QMCDriver::putQMCInfo 
  Resetting Properties of the walkers 1 x 13

=========================================================
  Start VMCSingleOMP
  File Root O.q0.opt.s007 append = no 
=========================================================
Using existing walkers 
  Resetting Properties of the walkers 1 x 13

<vmc function="put">
  qmc_counter=7  my_counter=7
  time step      = 3.0000000000e-01
  blocks         = 200
  steps          = 1
  substeps       = 1
  current        = 0
  target samples = 5.1200000000e+04
  walkers/mpi    = 16

  stepsbetweensamples = 2
<parameter name="blocks" condition="int">200</parameter>
<parameter name="check_properties" condition="int">100</parameter>
<parameter name="checkproperties" condition="int">100</parameter>
<parameter name="current" condition="int">0</parameter>
<parameter name="dmcwalkersperthread" condition="real">1.0000000000e+02</parameter>
<parameter name="maxcpusecs" condition="real">3.6000000000e+05</parameter>
<parameter name="record_configs" condition="int">0</parameter>
<parameter name="record_walkers" condition="int">2</parameter>
<parameter name="recordconfigs" condition="int">0</parameter>
<parameter name="recordwalkers" condition="int">2</parameter>
<parameter name="rewind" condition="int">0</parameter>
<parameter name="samples" condition="real">5.1200000000e+04</parameter>
<parameter name="samplesperthread" condition="real">1.0000000000e+02</parameter>
<parameter name="steps" condition="int">1</parameter>
<parameter name="stepsbetweensamples" condition="int">2</parameter>
<parameter name="store_configs" condition="int">0</parameter>
<parameter name="storeconfigs" condition="int">0</parameter>
<parameter name="sub_steps" condition="int">1</parameter>
<parameter name="substeps" condition="int">1</parameter>
<parameter name="tau" condition="au">3.0000000000e-01</parameter>
<parameter name="time_step" condition="au">3.0000000000e-01</parameter>
<parameter name="timestep" condition="au">3.0000000000e-01</parameter>
<parameter name="use_drift" condition="string">no</parameter>
<parameter name="usedrift" condition="string">no</parameter>
<parameter name="walkers" condition="int">1</parameter>
<parameter name="warmup_steps" condition="int">50</parameter>
<parameter name="warmupsteps" condition="int">50</parameter>
  DumpConfig==false Nothing (configurations, state) will be saved.
  Walker Samples are dumped every 2 steps.
</vmc>
<optimization-report>
<vmc stage="main" blocks="200">
  Cannot make clones again. Use existing 16 clones
  Initial partition of walkers 0 1 2 3 4 5 6 7 8 9 10 11 12 13 14 15 16 
  Total Sample Size   =51200
  Walker distribution on root = 0 1 2 3 4 5 6 7 8 9 10 11 12 13 14 15 16 
====================================================
  SimpleFixedNodeBranch::finalize after a VMC block
    QMC counter        = 7
    time step          = 0.3
    reference energy   = -15.8295
    reference variance = 0.816432
====================================================
  Execution time = 1.1779303701e+01
</vmc>
<opt stage="setup">
  <log>
   Reading configurations from h5FileRoot O.q0.opt.s007
  QMCCostFunctionOMP is created with 16
   Loading configuration from MCWalkerConfiguration::SampleStack 
    number of walkers before load 16
  Using Nonlocal PP in Opt: NonLocalECP
    number of walkers after load: 100 100 100 100 100 100 100 100 100 100 100 100 100 100 100 100 
Using buffers for temporary storage in QMCCostFunction.

Memory usage: 
Linear method (approx matrix usage: 4*N^2): 1.8432000000e-02 MB
Deriv,HDerivRecord:      9.2160000000e-01 MB
Buffer memory cost:     MB/walker       MB/total 
Orbitals only:           1.6000000000e-04      2.5600000000e-01
Orbitals + dervs:        5.7600000000e-04      9.2160000000e-01
Inverse:                 0.0000000000e+00      0.0000000000e+00
Determinants:            0.0000000000e+00      0.0000000000e+00
  VMC Eavg = -1.5863530573e+01
  VMC Evar = 6.6659923822e-01
  Total weights = 5.1200000000e+04
  Execution time = 1.8153370213e+00
  </log>
</opt>
<opt stage="main" walkers="51200">
  <log>
Iteration: 1/1
od_largest 1.6908754968e+02
  stabilityBase -1.6000000000e+01
  stabilizerScale 1.0000000000e+00
  Using XS:-1.6000000000e+01 0 0
  Good Step. Largest LM parameter change:9.4522168920e-02
 OldCost: 6.6659923822e-01 NewCost: 6.6651737755e-01 Delta Cost:-8.1860671682e-05
      Current ene:     -1.5864255687e+01
      Current var:     6.6624708381e-01
      Current ene_urw:     -1.5863675731e+01
      Current var_urw: 6.6651737755e-01
Setting new Parameters
ERROR   Execution time = 2.8559564299e+01
  </log>
  <optVariables href="O.q0.opt.s007.opt.xml">
uu_0 8.8345433319e-01 1 1  ON 0
uu_1 6.8982556416e-01 1 1  ON 1
uu_2 6.0033368129e-01 1 1  ON 2
uu_3 5.7081260654e-01 1 1  ON 3
uu_4 5.6341538093e-01 1 1  ON 4
uu_5 5.5857259265e-01 1 1  ON 5
uu_6 5.8706627404e-01 1 1  ON 6
uu_7 5.3356054043e-01 1 1  ON 7
ud_0 5.3226029029e-01 1 1  ON 8
ud_1 2.6524893092e-01 1 1  ON 9
ud_2 1.8421786924e-01 1 1  ON 10
ud_3 1.6182920946e-01 1 1  ON 11
ud_4 1.5511649531e-01 1 1  ON 12
ud_5 1.6851972227e-01 1 1  ON 13
ud_6 1.5099181843e-01 1 1  ON 14
ud_7 3.2991712113e-01 1 1  ON 15
eO_0 -7.6929599444e-01 1 1  ON 16
eO_1 -6.5625339288e-01 1 1  ON 17
eO_2 -4.7613588222e-01 1 1  ON 18
eO_3 -2.9577584123e-01 1 1  ON 19
eO_4 -1.6577058567e-01 1 1  ON 20
eO_5 -7.3929880781e-02 1 1  ON 21
eO_6 -2.5963462516e-02 1 1  ON 22
eO_7 9.5946274668e-03 1 1  ON 23
  </optVariables>
   Restore the number of walkers to 16, removing 84 walkers.
</opt>
</optimization-report>
  QMC Execution time = 2.8582500227e+01 secs 
  Reusing QMCFixedSampleLinearOptimize
 Using QMCCostFunctionOMP::QMCCostFunctionOMP

=========================================================
  Start QMCFixedSampleLinearOptimize
  File Root O.q0.opt.s008 append = no 
=========================================================
  Skip QMCDriver::putQMCInfo 
  Resetting Properties of the walkers 1 x 13

=========================================================
  Start VMCSingleOMP
  File Root O.q0.opt.s008 append = no 
=========================================================
Using existing walkers 
  Resetting Properties of the walkers 1 x 13

<vmc function="put">
  qmc_counter=8  my_counter=8
  time step      = 3.0000000000e-01
  blocks         = 200
  steps          = 1
  substeps       = 1
  current        = 0
  target samples = 5.1200000000e+04
  walkers/mpi    = 16

  stepsbetweensamples = 2
<parameter name="blocks" condition="int">200</parameter>
<parameter name="check_properties" condition="int">100</parameter>
<parameter name="checkproperties" condition="int">100</parameter>
<parameter name="current" condition="int">0</parameter>
<parameter name="dmcwalkersperthread" condition="real">1.0000000000e+02</parameter>
<parameter name="maxcpusecs" condition="real">3.6000000000e+05</parameter>
<parameter name="record_configs" condition="int">0</parameter>
<parameter name="record_walkers" condition="int">2</parameter>
<parameter name="recordconfigs" condition="int">0</parameter>
<parameter name="recordwalkers" condition="int">2</parameter>
<parameter name="rewind" condition="int">0</parameter>
<parameter name="samples" condition="real">5.1200000000e+04</parameter>
<parameter name="samplesperthread" condition="real">1.0000000000e+02</parameter>
<parameter name="steps" condition="int">1</parameter>
<parameter name="stepsbetweensamples" condition="int">2</parameter>
<parameter name="store_configs" condition="int">0</parameter>
<parameter name="storeconfigs" condition="int">0</parameter>
<parameter name="sub_steps" condition="int">1</parameter>
<parameter name="substeps" condition="int">1</parameter>
<parameter name="tau" condition="au">3.0000000000e-01</parameter>
<parameter name="time_step" condition="au">3.0000000000e-01</parameter>
<parameter name="timestep" condition="au">3.0000000000e-01</parameter>
<parameter name="use_drift" condition="string">no</parameter>
<parameter name="usedrift" condition="string">no</parameter>
<parameter name="walkers" condition="int">1</parameter>
<parameter name="warmup_steps" condition="int">50</parameter>
<parameter name="warmupsteps" condition="int">50</parameter>
  DumpConfig==false Nothing (configurations, state) will be saved.
  Walker Samples are dumped every 2 steps.
</vmc>
<optimization-report>
<vmc stage="main" blocks="200">
  Cannot make clones again. Use existing 16 clones
  Initial partition of walkers 0 1 2 3 4 5 6 7 8 9 10 11 12 13 14 15 16 
  Total Sample Size   =51200
  Walker distribution on root = 0 1 2 3 4 5 6 7 8 9 10 11 12 13 14 15 16 
====================================================
  SimpleFixedNodeBranch::finalize after a VMC block
    QMC counter        = 8
    time step          = 0.3
    reference energy   = -15.9051
    reference variance = 0.769368
====================================================
  Execution time = 1.1897651714e+01
</vmc>
<opt stage="setup">
  <log>
   Reading configurations from h5FileRoot O.q0.opt.s008
  QMCCostFunctionOMP is created with 16
   Loading configuration from MCWalkerConfiguration::SampleStack 
    number of walkers before load 16
  Using Nonlocal PP in Opt: NonLocalECP
    number of walkers after load: 100 100 100 100 100 100 100 100 100 100 100 100 100 100 100 100 
Using buffers for temporary storage in QMCCostFunction.

Memory usage: 
Linear method (approx matrix usage: 4*N^2): 1.8432000000e-02 MB
Deriv,HDerivRecord:      9.2160000000e-01 MB
Buffer memory cost:     MB/walker       MB/total 
Orbitals only:           1.6000000000e-04      2.5600000000e-01
Orbitals + dervs:        5.7600000000e-04      9.2160000000e-01
Inverse:                 0.0000000000e+00      0.0000000000e+00
Determinants:            0.0000000000e+00      0.0000000000e+00
  VMC Eavg = -1.5866055793e+01
  VMC Evar = 7.7828995609e-01
  Total weights = 5.1200000000e+04
  Execution time = 1.7793831800e+00
  </log>
</opt>
<opt stage="main" walkers="51200">
  <log>
Iteration: 1/1
od_largest 1.7324150684e+01
  stabilityBase -1.6000000000e+01
  stabilizerScale 1.0000000000e+00
  Using XS:-1.6000000000e+01 0 0
  Good Step. Largest LM parameter change:2.6240115151e-01
 OldCost: 7.7828995609e-01 NewCost: 7.7735482525e-01 Delta Cost:-9.3513083900e-04
      Current ene:     -1.5869751541e+01
      Current var:     6.9837782079e-01
      Current ene_urw:     -1.5865935993e+01
      Current var_urw: 7.7735482525e-01
Setting new Parameters
ERROR   Execution time = 2.8429057763e+01
  </log>
  <optVariables href="O.q0.opt.s008.opt.xml">
uu_0 7.3963941789e-01 1 1  ON 0
uu_1 5.3930083370e-01 1 1  ON 1
uu_2 4.4622380590e-01 1 1  ON 2
uu_3 4.1376489245e-01 1 1  ON 3
uu_4 4.0729799062e-01 1 1  ON 4
uu_5 4.0079176051e-01 1 1  ON 5
uu_6 4.5545213395e-01 1 1  ON 6
uu_7 2.7115938892e-01 1 1  ON 7
ud_0 4.0973246802e-01 1 1  ON 8
ud_1 1.3827621087e-01 1 1  ON 9
ud_2 5.1314216722e-02 1 1  ON 10
ud_3 2.6691702792e-02 1 1  ON 11
ud_4 2.0655886227e-02 1 1  ON 12
ud_5 3.2876834058e-02 1 1  ON 13
ud_6 3.6270041260e-02 1 1  ON 14
ud_7 1.0583660164e-01 1 1  ON 15
eO_0 -8.1027345551e-01 1 1  ON 16
eO_1 -6.9268794076e-01 1 1  ON 17
eO_2 -5.0635009621e-01 1 1  ON 18
eO_3 -3.1730516775e-01 1 1  ON 19
eO_4 -1.7952071009e-01 1 1  ON 20
eO_5 -8.1042221882e-02 1 1  ON 21
eO_6 -2.9145324393e-02 1 1  ON 22
eO_7 6.4299212002e-03 1 1  ON 23
  </optVariables>
   Restore the number of walkers to 16, removing 84 walkers.
</opt>
</optimization-report>
  QMC Execution time = 2.8451634776e+01 secs 
  Reusing QMCFixedSampleLinearOptimize
 Using QMCCostFunctionOMP::QMCCostFunctionOMP

=========================================================
  Start QMCFixedSampleLinearOptimize
  File Root O.q0.opt.s009 append = no 
=========================================================
  Skip QMCDriver::putQMCInfo 
  Resetting Properties of the walkers 1 x 13

=========================================================
  Start VMCSingleOMP
  File Root O.q0.opt.s009 append = no 
=========================================================
Using existing walkers 
  Resetting Properties of the walkers 1 x 13

<vmc function="put">
  qmc_counter=9  my_counter=9
  time step      = 3.0000000000e-01
  blocks         = 200
  steps          = 1
  substeps       = 1
  current        = 0
  target samples = 5.1200000000e+04
  walkers/mpi    = 16

  stepsbetweensamples = 2
<parameter name="blocks" condition="int">200</parameter>
<parameter name="check_properties" condition="int">100</parameter>
<parameter name="checkproperties" condition="int">100</parameter>
<parameter name="current" condition="int">0</parameter>
<parameter name="dmcwalkersperthread" condition="real">1.0000000000e+02</parameter>
<parameter name="maxcpusecs" condition="real">3.6000000000e+05</parameter>
<parameter name="record_configs" condition="int">0</parameter>
<parameter name="record_walkers" condition="int">2</parameter>
<parameter name="recordconfigs" condition="int">0</parameter>
<parameter name="recordwalkers" condition="int">2</parameter>
<parameter name="rewind" condition="int">0</parameter>
<parameter name="samples" condition="real">5.1200000000e+04</parameter>
<parameter name="samplesperthread" condition="real">1.0000000000e+02</parameter>
<parameter name="steps" condition="int">1</parameter>
<parameter name="stepsbetweensamples" condition="int">2</parameter>
<parameter name="store_configs" condition="int">0</parameter>
<parameter name="storeconfigs" condition="int">0</parameter>
<parameter name="sub_steps" condition="int">1</parameter>
<parameter name="substeps" condition="int">1</parameter>
<parameter name="tau" condition="au">3.0000000000e-01</parameter>
<parameter name="time_step" condition="au">3.0000000000e-01</parameter>
<parameter name="timestep" condition="au">3.0000000000e-01</parameter>
<parameter name="use_drift" condition="string">no</parameter>
<parameter name="usedrift" condition="string">no</parameter>
<parameter name="walkers" condition="int">1</parameter>
<parameter name="warmup_steps" condition="int">50</parameter>
<parameter name="warmupsteps" condition="int">50</parameter>
  DumpConfig==false Nothing (configurations, state) will be saved.
  Walker Samples are dumped every 2 steps.
</vmc>
<optimization-report>
<vmc stage="main" blocks="200">
  Cannot make clones again. Use existing 16 clones
  Initial partition of walkers 0 1 2 3 4 5 6 7 8 9 10 11 12 13 14 15 16 
  Total Sample Size   =51200
  Walker distribution on root = 0 1 2 3 4 5 6 7 8 9 10 11 12 13 14 15 16 
====================================================
  SimpleFixedNodeBranch::finalize after a VMC block
    QMC counter        = 9
    time step          = 0.3
    reference energy   = -15.8977
    reference variance = 0.801833
====================================================
  Execution time = 1.1584684705e+01
</vmc>
<opt stage="setup">
  <log>
   Reading configurations from h5FileRoot O.q0.opt.s009
  QMCCostFunctionOMP is created with 16
   Loading configuration from MCWalkerConfiguration::SampleStack 
    number of walkers before load 16
  Using Nonlocal PP in Opt: NonLocalECP
    number of walkers after load: 100 100 100 100 100 100 100 100 100 100 100 100 100 100 100 100 
Using buffers for temporary storage in QMCCostFunction.

Memory usage: 
Linear method (approx matrix usage: 4*N^2): 1.8432000000e-02 MB
Deriv,HDerivRecord:      9.2160000000e-01 MB
Buffer memory cost:     MB/walker       MB/total 
Orbitals only:           1.6000000000e-04      2.5600000000e-01
Orbitals + dervs:        5.7600000000e-04      9.2160000000e-01
Inverse:                 0.0000000000e+00      0.0000000000e+00
Determinants:            0.0000000000e+00      0.0000000000e+00
  VMC Eavg = -1.5870690120e+01
  VMC Evar = 7.2717974404e-01
  Total weights = 5.1200000000e+04
  Execution time = 1.7239092863e+00
  </log>
</opt>
<opt stage="main" walkers="51200">
  <log>
Iteration: 1/1
od_largest 4.7183787905e+01
  stabilityBase -1.6000000000e+01
  stabilizerScale 1.0000000000e+00
  Using XS:-1.6000000000e+01 0 0
  Good Step. Largest LM parameter change:1.8448161364e-02
 OldCost: 7.2717974404e-01 NewCost: 7.2715201115e-01 Delta Cost:-2.7732880747e-05
      Current ene:     -1.5871056078e+01
      Current var:     7.2704550639e-01
      Current ene_urw:     -1.5870712363e+01
      Current var_urw: 7.2715201115e-01
Setting new Parameters
ERROR   Execution time = 2.7772372080e+01
  </log>
  <optVariables href="O.q0.opt.s009.opt.xml">
uu_0 7.4836797625e-01 1 1  ON 0
uu_1 5.4721121619e-01 1 1  ON 1
uu_2 4.5327376675e-01 1 1  ON 2
uu_3 4.2007443577e-01 1 1  ON 3
uu_4 4.1425782650e-01 1 1  ON 4
uu_5 4.0790137645e-01 1 1  ON 5
uu_6 4.6560043140e-01 1 1  ON 6
uu_7 2.7324691304e-01 1 1  ON 7
ud_0 3.9570980657e-01 1 1  ON 8
ud_1 1.2327992617e-01 1 1  ON 9
ud_2 3.4911819709e-02 1 1  ON 10
ud_3 9.8056520117e-03 1 1  ON 11
ud_4 4.6709087508e-03 1 1  ON 12
ud_5 1.6700313909e-02 1 1  ON 13
ud_6 2.1011201818e-02 1 1  ON 14
ud_7 8.7388440280e-02 1 1  ON 15
eO_0 -8.1649488912e-01 1 1  ON 16
eO_1 -6.9774848888e-01 1 1  ON 17
eO_2 -5.1014760378e-01 1 1  ON 18
eO_3 -3.1903795850e-01 1 1  ON 19
eO_4 -1.7925730392e-01 1 1  ON 20
eO_5 -7.9836621235e-02 1 1  ON 21
eO_6 -2.7398923371e-02 1 1  ON 22
eO_7 7.6654466197e-03 1 1  ON 23
  </optVariables>
   Restore the number of walkers to 16, removing 84 walkers.
</opt>
</optimization-report>
  QMC Execution time = 2.7798087232e+01 secs 
  Reusing QMCFixedSampleLinearOptimize
 Using QMCCostFunctionOMP::QMCCostFunctionOMP

=========================================================
  Start QMCFixedSampleLinearOptimize
  File Root O.q0.opt.s010 append = no 
=========================================================
  Skip QMCDriver::putQMCInfo 
  Resetting Properties of the walkers 1 x 13

=========================================================
  Start VMCSingleOMP
  File Root O.q0.opt.s010 append = no 
=========================================================
Using existing walkers 
  Resetting Properties of the walkers 1 x 13

<vmc function="put">
  qmc_counter=10  my_counter=10
  time step      = 3.0000000000e-01
  blocks         = 200
  steps          = 1
  substeps       = 1
  current        = 0
  target samples = 5.1200000000e+04
  walkers/mpi    = 16

  stepsbetweensamples = 2
<parameter name="blocks" condition="int">200</parameter>
<parameter name="check_properties" condition="int">100</parameter>
<parameter name="checkproperties" condition="int">100</parameter>
<parameter name="current" condition="int">0</parameter>
<parameter name="dmcwalkersperthread" condition="real">1.0000000000e+02</parameter>
<parameter name="maxcpusecs" condition="real">3.6000000000e+05</parameter>
<parameter name="record_configs" condition="int">0</parameter>
<parameter name="record_walkers" condition="int">2</parameter>
<parameter name="recordconfigs" condition="int">0</parameter>
<parameter name="recordwalkers" condition="int">2</parameter>
<parameter name="rewind" condition="int">0</parameter>
<parameter name="samples" condition="real">5.1200000000e+04</parameter>
<parameter name="samplesperthread" condition="real">1.0000000000e+02</parameter>
<parameter name="steps" condition="int">1</parameter>
<parameter name="stepsbetweensamples" condition="int">2</parameter>
<parameter name="store_configs" condition="int">0</parameter>
<parameter name="storeconfigs" condition="int">0</parameter>
<parameter name="sub_steps" condition="int">1</parameter>
<parameter name="substeps" condition="int">1</parameter>
<parameter name="tau" condition="au">3.0000000000e-01</parameter>
<parameter name="time_step" condition="au">3.0000000000e-01</parameter>
<parameter name="timestep" condition="au">3.0000000000e-01</parameter>
<parameter name="use_drift" condition="string">no</parameter>
<parameter name="usedrift" condition="string">no</parameter>
<parameter name="walkers" condition="int">1</parameter>
<parameter name="warmup_steps" condition="int">50</parameter>
<parameter name="warmupsteps" condition="int">50</parameter>
  DumpConfig==false Nothing (configurations, state) will be saved.
  Walker Samples are dumped every 2 steps.
</vmc>
<optimization-report>
<vmc stage="main" blocks="200">
  Cannot make clones again. Use existing 16 clones
  Initial partition of walkers 0 1 2 3 4 5 6 7 8 9 10 11 12 13 14 15 16 
  Total Sample Size   =51200
  Walker distribution on root = 0 1 2 3 4 5 6 7 8 9 10 11 12 13 14 15 16 
====================================================
  SimpleFixedNodeBranch::finalize after a VMC block
    QMC counter        = 10
    time step          = 0.3
    reference energy   = -15.8431
    reference variance = 0.804669
====================================================
  Execution time = 1.1602678616e+01
</vmc>
<opt stage="setup">
  <log>
   Reading configurations from h5FileRoot O.q0.opt.s010
  QMCCostFunctionOMP is created with 16
   Loading configuration from MCWalkerConfiguration::SampleStack 
    number of walkers before load 16
  Using Nonlocal PP in Opt: NonLocalECP
    number of walkers after load: 100 100 100 100 100 100 100 100 100 100 100 100 100 100 100 100 
Using buffers for temporary storage in QMCCostFunction.

Memory usage: 
Linear method (approx matrix usage: 4*N^2): 1.8432000000e-02 MB
Deriv,HDerivRecord:      9.2160000000e-01 MB
Buffer memory cost:     MB/walker       MB/total 
Orbitals only:           1.6000000000e-04      2.5600000000e-01
Orbitals + dervs:        5.7600000000e-04      9.2160000000e-01
Inverse:                 0.0000000000e+00      0.0000000000e+00
Determinants:            0.0000000000e+00      0.0000000000e+00
  VMC Eavg = -1.5858502328e+01
  VMC Evar = 6.9400639873e-01
  Total weights = 5.1200000000e+04
  Execution time = 1.7498992050e+00
  </log>
</opt>
<opt stage="main" walkers="51200">
  <log>
Iteration: 1/1
od_largest 2.3641918147e+01
  stabilityBase -1.6000000000e+01
  stabilizerScale 1.0000000000e+00
  Using XS:-1.6000000000e+01 0 0
  Good Step. Largest LM parameter change:6.8849399124e-02
 OldCost: 6.9400639873e-01 NewCost: 6.9257183689e-01 Delta Cost:-1.4345618444e-03
      Current ene:     -1.5856114591e+01
      Current var:     6.9737684677e-01
      Current ene_urw:     -1.5858769650e+01
      Current var_urw: 6.9257183689e-01
Setting new Parameters
ERROR   Execution time = 2.7984902016e+01
  </log>
  <optVariables href="O.q0.opt.s010.opt.xml">
uu_0 7.3513937696e-01 1 1  ON 0
uu_1 5.3933608741e-01 1 1  ON 1
uu_2 4.5322456414e-01 1 1  ON 2
uu_3 4.2353264201e-01 1 1  ON 3
uu_4 4.1762114568e-01 1 1  ON 4
uu_5 3.9678520756e-01 1 1  ON 5
uu_6 4.7773061812e-01 1 1  ON 6
uu_7 2.1305783310e-01 1 1  ON 7
ud_0 3.7077923822e-01 1 1  ON 8
ud_1 1.0347705763e-01 1 1  ON 9
ud_2 2.6137148513e-02 1 1  ON 10
ud_3 4.1127239222e-03 1 1  ON 11
ud_4 -2.4106370107e-03 1 1  ON 12
ud_5 5.4611855364e-03 1 1  ON 13
ud_6 1.8203841942e-02 1 1  ON 14
ud_7 1.8539041156e-02 1 1  ON 15
eO_0 -7.7545649033e-01 1 1  ON 16
eO_1 -6.5804970275e-01 1 1  ON 17
eO_2 -4.8032078568e-01 1 1  ON 18
eO_3 -3.0512191161e-01 1 1  ON 19
eO_4 -1.7769033001e-01 1 1  ON 20
eO_5 -8.6298069506e-02 1 1  ON 21
eO_6 -4.2746106145e-02 1 1  ON 22
eO_7 -4.6668911821e-03 1 1  ON 23
  </optVariables>
   Restore the number of walkers to 16, removing 84 walkers.
</opt>
</optimization-report>
  QMC Execution time = 2.8007562678e+01 secs 
  Reusing QMCFixedSampleLinearOptimize
 Using QMCCostFunctionOMP::QMCCostFunctionOMP

=========================================================
  Start QMCFixedSampleLinearOptimize
  File Root O.q0.opt.s011 append = no 
=========================================================
  Skip QMCDriver::putQMCInfo 
  Resetting Properties of the walkers 1 x 13

=========================================================
  Start VMCSingleOMP
  File Root O.q0.opt.s011 append = no 
=========================================================
Using existing walkers 
  Resetting Properties of the walkers 1 x 13

<vmc function="put">
  qmc_counter=11  my_counter=11
  time step      = 3.0000000000e-01
  blocks         = 200
  steps          = 1
  substeps       = 1
  current        = 0
  target samples = 5.1200000000e+04
  walkers/mpi    = 16

  stepsbetweensamples = 2
<parameter name="blocks" condition="int">200</parameter>
<parameter name="check_properties" condition="int">100</parameter>
<parameter name="checkproperties" condition="int">100</parameter>
<parameter name="current" condition="int">0</parameter>
<parameter name="dmcwalkersperthread" condition="real">1.0000000000e+02</parameter>
<parameter name="maxcpusecs" condition="real">3.6000000000e+05</parameter>
<parameter name="record_configs" condition="int">0</parameter>
<parameter name="record_walkers" condition="int">2</parameter>
<parameter name="recordconfigs" condition="int">0</parameter>
<parameter name="recordwalkers" condition="int">2</parameter>
<parameter name="rewind" condition="int">0</parameter>
<parameter name="samples" condition="real">5.1200000000e+04</parameter>
<parameter name="samplesperthread" condition="real">1.0000000000e+02</parameter>
<parameter name="steps" condition="int">1</parameter>
<parameter name="stepsbetweensamples" condition="int">2</parameter>
<parameter name="store_configs" condition="int">0</parameter>
<parameter name="storeconfigs" condition="int">0</parameter>
<parameter name="sub_steps" condition="int">1</parameter>
<parameter name="substeps" condition="int">1</parameter>
<parameter name="tau" condition="au">3.0000000000e-01</parameter>
<parameter name="time_step" condition="au">3.0000000000e-01</parameter>
<parameter name="timestep" condition="au">3.0000000000e-01</parameter>
<parameter name="use_drift" condition="string">no</parameter>
<parameter name="usedrift" condition="string">no</parameter>
<parameter name="walkers" condition="int">1</parameter>
<parameter name="warmup_steps" condition="int">50</parameter>
<parameter name="warmupsteps" condition="int">50</parameter>
  DumpConfig==false Nothing (configurations, state) will be saved.
  Walker Samples are dumped every 2 steps.
</vmc>
<optimization-report>
<vmc stage="main" blocks="200">
  Cannot make clones again. Use existing 16 clones
  Initial partition of walkers 0 1 2 3 4 5 6 7 8 9 10 11 12 13 14 15 16 
  Total Sample Size   =51200
  Walker distribution on root = 0 1 2 3 4 5 6 7 8 9 10 11 12 13 14 15 16 
====================================================
  SimpleFixedNodeBranch::finalize after a VMC block
    QMC counter        = 11
    time step          = 0.3
    reference energy   = -15.8352
    reference variance = 0.775386
====================================================
  Execution time = 1.1803519015e+01
</vmc>
<opt stage="setup">
  <log>
   Reading configurations from h5FileRoot O.q0.opt.s011
  QMCCostFunctionOMP is created with 16
   Loading configuration from MCWalkerConfiguration::SampleStack 
    number of walkers before load 16
  Using Nonlocal PP in Opt: NonLocalECP
    number of walkers after load: 100 100 100 100 100 100 100 100 100 100 100 100 100 100 100 100 
Using buffers for temporary storage in QMCCostFunction.

Memory usage: 
Linear method (approx matrix usage: 4*N^2): 1.8432000000e-02 MB
Deriv,HDerivRecord:      9.2160000000e-01 MB
Buffer memory cost:     MB/walker       MB/total 
Orbitals only:           1.6000000000e-04      2.5600000000e-01
Orbitals + dervs:        5.7600000000e-04      9.2160000000e-01
Inverse:                 0.0000000000e+00      0.0000000000e+00
Determinants:            0.0000000000e+00      0.0000000000e+00
  VMC Eavg = -1.5850880226e+01
  VMC Evar = 7.0598901869e-01
  Total weights = 5.1200000000e+04
  Execution time = 1.7764163587e+00
  </log>
</opt>
<opt stage="main" walkers="51200">
  <log>
Iteration: 1/1
od_largest 1.3385266685e+01
  stabilityBase -1.6000000000e+01
  stabilizerScale 1.0000000000e+00
  Using XS:-1.6000000000e+01 0 0
  Good Step. Largest LM parameter change:4.6340424357e-02
 OldCost: 7.0598901869e-01 NewCost: 7.0592576381e-01 Delta Cost:-6.3254886314e-05
      Current ene:     -1.5851627199e+01
      Current var:     6.9950819478e-01
      Current ene_urw:     -1.5850958038e+01
      Current var_urw: 7.0592576381e-01
Setting new Parameters
ERROR   Execution time = 2.8196412791e+01
  </log>
  <optVariables href="O.q0.opt.s011.opt.xml">
uu_0 6.9392504232e-01 1 1  ON 0
uu_1 4.9690781460e-01 1 1  ON 1
uu_2 4.0934542375e-01 1 1  ON 2
uu_3 3.7875640157e-01 1 1  ON 3
uu_4 3.7308380014e-01 1 1  ON 4
uu_5 3.5419786809e-01 1 1  ON 5
uu_6 4.3139019377e-01 1 1  ON 6
uu_7 1.9344371667e-01 1 1  ON 7
ud_0 3.9219009713e-01 1 1  ON 8
ud_1 1.2352664647e-01 1 1  ON 9
ud_2 4.4048945133e-02 1 1  ON 10
ud_3 2.1415676741e-02 1 1  ON 11
ud_4 1.5201803731e-02 1 1  ON 12
ud_5 2.3708169445e-02 1 1  ON 13
ud_6 3.4279064930e-02 1 1  ON 14
ud_7 4.3334583596e-02 1 1  ON 15
eO_0 -7.8490123937e-01 1 1  ON 16
eO_1 -6.6726618338e-01 1 1  ON 17
eO_2 -4.8753453838e-01 1 1  ON 18
eO_3 -3.0913993774e-01 1 1  ON 19
eO_4 -1.7901872177e-01 1 1  ON 20
eO_5 -8.6199000697e-02 1 1  ON 21
eO_6 -4.0601160841e-02 1 1  ON 22
eO_7 -4.1358075061e-03 1 1  ON 23
  </optVariables>
   Restore the number of walkers to 16, removing 84 walkers.
</opt>
</optimization-report>
  QMC Execution time = 2.8218972974e+01 secs 
  Total Execution time = 3.2872749530e+02 secs

=========================================================
  A new xml input file : O.q0.opt.s011.cont.xml
