
     Program PWSCF v.4.2        starts on 17Jun2014 at 17:18:24 

     This program is part of the open-source Quantum ESPRESSO suite
     for quantum simulation of materials; please acknowledge
         "P. Giannozzi et al., J. Phys.:Condens. Matter 21 395502 (2009);
          URL http://www.quantum-espresso.org", 
     in publications or presentations arising from this work. More details at
     http://www.quantum-espresso.org/wiki/index.php/Citing_Quantum-ESPRESSO

     Parallel version (MPI), running on    16 processors
     R & G space division:  proc/pool =   16

     EXPERIMENTAL VERSION WITH EXACT EXCHANGE

     Current dimensions of program PWSCF are:
     Max number of different atomic species (ntypx) = 10
     Max number of k-points (npk) =  40000
     Max angular momentum in pseudopotentials (lmaxx) =  3
     Waiting for input...

     XC functional enforced from input :
     Exchange-correlation      = LDA (1100)
     EXX-fraction              =        0.00
     !!! Any further DFT definition will be discarded
     !!! Please, verify this is what you really want !

     file O.BFD.upf: wavefunction(s)  0s 0p renormalized

     Subspace diagonalization in iterative solution of the eigenvalue problem:
     Too few electrons for parallel  algorithm: we need # of bands >= SQRT(nproc)
     a serial algorithm will be used


     Planes per process (thick) : nr3 = 256 npp =   16 ncplane = 65536
 
     Proc/  planes cols     G    planes cols    G      columns  G
     Pool       (dense grid)       (smooth grid)      (wavefct grid)
        1    16   3198   544004   16   3198   544004    798    68032
        2    16   3198   544004   16   3198   544004    798    68032
        3    16   3198   544004   16   3198   544004    798    68032
        4    16   3198   544004   16   3198   544004    798    68032
        5    16   3198   544004   16   3198   544004    798    68032
        6    16   3198   544004   16   3198   544004    800    68034
        7    16   3197   543999   16   3197   543999    800    68034
        8    16   3197   543999   16   3197   543999    800    68034
        9    16   3197   543999   16   3197   543999    800    68034
       10    16   3198   544002   16   3198   544002    800    68034
       11    16   3198   544002   16   3198   544002    800    68034
       12    16   3198   544002   16   3198   544002    799    68031
       13    16   3198   544002   16   3198   544002    799    68033
       14    16   3198   544002   16   3198   544002    799    68033
       15    16   3198   544002   16   3198   544002    799    68033
       16    16   3198   544002   16   3198   544002    799    68033
     tot    256  51165  8704035  256  51165  8704035  12785  1088527
 


     bravais-lattice index     =            0
     lattice parameter (a_0)   =       1.0000  a.u.
     unit-cell volume          =   22775.6360 (a.u.)^3
     number of atoms/cell      =            1
     number of atomic types    =            1
     number of electrons       =         6.00 (up:   4.00, down:   2.00)
     number of Kohn-Sham states=            8
     kinetic-energy cutoff     =     200.0000  Ry
     charge density cutoff     =     800.0000  Ry
     convergence threshold     =      1.0E-06
     mixing beta               =       0.2000
     number of iterations used =            8  plain     mixing
     Exchange-correlation      = LDA (1100)
     EXX-fraction              =        0.00

     celldm(1)=   1.000000  celldm(2)=   0.000000  celldm(3)=   0.000000
     celldm(4)=   0.000000  celldm(5)=   0.000000  celldm(6)=   0.000000

     crystal axes: (cart. coord. in units of a_0)
               a(1) = ( 28.345892  0.000000  0.000000 )  
               a(2) = (  0.000000 28.345895  0.000000 )  
               a(3) = (  0.000000  0.000000 28.345898 )  

     reciprocal axes: (cart. coord. in units 2 pi/a_0)
               b(1) = (  0.035278  0.000000  0.000000 )  
               b(2) = (  0.000000  0.035278  0.000000 )  
               b(3) = (  0.000000  0.000000  0.035278 )  


     PseudoPot. # 1 for O  read from file O.BFD.upf
     Pseudo is Norm-conserving, Zval =  6.0
     Generated by new atomic code, or converted to UPF format
     Using radial grid of 2000 points,  1 beta functions with: 
                l(1) =   0

     atomic species   valence    mass     pseudopotential
        O              6.00    15.99900     O ( 1.00)

     Starting magnetic structure 
     atomic species   magnetization
        O            0.000

     No symmetry found
                                    s                        frac. trans.

      isym =  1     identity                                     

 cryst.   s( 1) = (     1          0          0      )    f =(  0.0000000 )
                  (     0          1          0      )       (  0.0000000 )
                  (     0          0          1      )       (  0.0000000 )

 cart.    s( 1) = (  1.0000000  0.0000000  0.0000000 )    f =(  0.0000000 )
                  (  0.0000000  1.0000000  0.0000000 )       (  0.0000000 )
                  (  0.0000000  0.0000000  1.0000000 )       (  0.0000000 )


     point group C_1 (1)    
     there are  1 classes
     the character table:

       E    
A      1.00

     the symmetry operations in each class:
     E        1

   Cartesian axes

     site n.     atom                  positions (a_0 units)
         1           O   tau(  1) = (  14.1729460  14.1729474  14.1729488  )

   Crystallographic axes

     site n.     atom                  positions (cryst. coord.)
         1           O   tau(  1) = (  0.5000000  0.5000000  0.5000000  )

     number of k points=     2  gaussian broad. (Ry)=  0.0001     ngauss = -99
                       cart. coord. in units 2pi/a_0
        k(    1) = (   0.0000000   0.0000000   0.0000000), wk =   1.0000000
        k(    2) = (   0.0000000   0.0000000   0.0000000), wk =   1.0000000

                       cryst. coord.
        k(    1) = (   0.0000000   0.0000000   0.0000000), wk =   1.0000000
        k(    2) = (   0.0000000   0.0000000   0.0000000), wk =   1.0000000

     G cutoff =   20.2642  (8704035 G-vectors)     FFT grid: (256,256,256)

     Largest allocated arrays     est. size (Mb)     dimensions
        Kohn-Sham Wavefunctions         8.30 Mb     (  68032,   8)
        NL pseudopotentials             1.04 Mb     (  68032,   1)
        Each V/rho on FFT grid         32.00 Mb     (1048576,   2)
        Each G-vector array             4.15 Mb     ( 544004)
        G-vector shells                 1.85 Mb     ( 242791)
     Largest temporary arrays     est. size (Mb)     dimensions
        Auxiliary wavefunctions        33.22 Mb     (  68032,  32)
        Each subspace H/S matrix        0.02 Mb     (     32,  32)
        Each <psi_i|beta_j> matrix      0.00 Mb     (      1,   8)
        Arrays for rho mixing         128.00 Mb     (1048576,   8)

     Initial potential from superposition of free atoms

     starting charge    0.47747, renormalised to    6.00000

     negative rho (up, down):  0.710E-03 0.710E-03
     Starting wfc are    4 atomic +    4 random wfc

     total cpu time spent up to now is     19.82 secs

     per-process dynamical memory:   271.7 Mb

     Self-consistent Calculation

     iteration #  1     ecut=   200.00 Ry     beta=0.20
     Davidson diagonalization with overlap
     ethr =  1.00E-02,  avg # of iterations =  8.0

     negative rho (up, down):  0.560E-03 0.565E-03

     total cpu time spent up to now is     37.75 secs

     total energy              =     -31.49219466 Ry
     Harris-Foulkes estimate   =     -31.45493037 Ry
     estimated scf accuracy    <       0.07766419 Ry

     total magnetization       =     2.00 Bohr mag/cell
     absolute magnetization    =     2.00 Bohr mag/cell

     iteration #  2     ecut=   200.00 Ry     beta=0.20
     Davidson diagonalization with overlap
     ethr =  1.29E-03,  avg # of iterations =  1.0

     negative rho (up, down):  0.393E-04 0.402E-04

     total cpu time spent up to now is     47.73 secs

     total energy              =     -31.56134550 Ry
     Harris-Foulkes estimate   =     -31.49245996 Ry
     estimated scf accuracy    <       0.05207890 Ry

     total magnetization       =     2.00 Bohr mag/cell
     absolute magnetization    =     2.00 Bohr mag/cell

     iteration #  3     ecut=   200.00 Ry     beta=0.20
     Davidson diagonalization with overlap
     ethr =  8.68E-04,  avg # of iterations =  1.5

     negative rho (up, down):  0.366E-04 0.363E-04

     total cpu time spent up to now is     58.35 secs

     total energy              =     -31.56682236 Ry
     Harris-Foulkes estimate   =     -31.56664639 Ry
     estimated scf accuracy    <       0.00042178 Ry

     total magnetization       =     2.00 Bohr mag/cell
     absolute magnetization    =     2.00 Bohr mag/cell

     iteration #  4     ecut=   200.00 Ry     beta=0.20
     Davidson diagonalization with overlap
     ethr =  7.03E-06,  avg # of iterations = 10.5

     negative rho (up, down):  0.374E-04 0.371E-04

     total cpu time spent up to now is     79.88 secs

     total energy              =     -31.56691829 Ry
     Harris-Foulkes estimate   =     -31.56694738 Ry
     estimated scf accuracy    <       0.00397238 Ry

     total magnetization       =     2.00 Bohr mag/cell
     absolute magnetization    =     2.00 Bohr mag/cell

     iteration #  5     ecut=   200.00 Ry     beta=0.20
     Davidson diagonalization with overlap
     ethr =  7.03E-06,  avg # of iterations =  1.0

     negative rho (up, down):  0.279E-04 0.272E-04

     total cpu time spent up to now is     90.15 secs

     total energy              =     -31.56707361 Ry
     Harris-Foulkes estimate   =     -31.56692605 Ry
     estimated scf accuracy    <       0.00019904 Ry

     total magnetization       =     2.00 Bohr mag/cell
     absolute magnetization    =     2.00 Bohr mag/cell

     iteration #  6     ecut=   200.00 Ry     beta=0.20
     Davidson diagonalization with overlap
     ethr =  3.32E-06,  avg # of iterations =  1.0

     negative rho (up, down):  0.743E-07 0.810E-07

     total cpu time spent up to now is    100.55 secs

     total energy              =     -31.56728749 Ry
     Harris-Foulkes estimate   =     -31.56708438 Ry
     estimated scf accuracy    <       0.00338562 Ry

     total magnetization       =     2.00 Bohr mag/cell
     absolute magnetization    =     2.00 Bohr mag/cell

     iteration #  7     ecut=   200.00 Ry     beta=0.20
     Davidson diagonalization with overlap
     ethr =  3.32E-06,  avg # of iterations =  1.5

     negative rho (up, down):  0.237E-05 0.227E-05

     total cpu time spent up to now is    111.93 secs

     total energy              =     -31.56729580 Ry
     Harris-Foulkes estimate   =     -31.56733705 Ry
     estimated scf accuracy    <       0.00011070 Ry

     total magnetization       =     2.00 Bohr mag/cell
     absolute magnetization    =     2.00 Bohr mag/cell

     iteration #  8     ecut=   200.00 Ry     beta=0.20
     Davidson diagonalization with overlap
     ethr =  1.85E-06,  avg # of iterations =  1.5

     total cpu time spent up to now is    123.08 secs

     total energy              =     -31.56729591 Ry
     Harris-Foulkes estimate   =     -31.56730197 Ry
     estimated scf accuracy    <       0.00002871 Ry

     total magnetization       =     2.00 Bohr mag/cell
     absolute magnetization    =     2.00 Bohr mag/cell

     iteration #  9     ecut=   200.00 Ry     beta=0.20
     Davidson diagonalization with overlap
     ethr =  4.79E-07,  avg # of iterations =  3.0

     negative rho (up, down):  0.597E-07 0.648E-07

     total cpu time spent up to now is    135.93 secs

     total energy              =     -31.56730111 Ry
     Harris-Foulkes estimate   =     -31.56730139 Ry
     estimated scf accuracy    <       0.00006889 Ry

     total magnetization       =     2.00 Bohr mag/cell
     absolute magnetization    =     2.00 Bohr mag/cell

     iteration # 10     ecut=   200.00 Ry     beta=0.20
     Davidson diagonalization with overlap
     ethr =  4.79E-07,  avg # of iterations =  1.0

     negative rho (up, down):  0.185E-07 0.160E-07

     total cpu time spent up to now is    146.75 secs

     total energy              =     -31.56730114 Ry
     Harris-Foulkes estimate   =     -31.56730136 Ry
     estimated scf accuracy    <       0.00002502 Ry

     total magnetization       =     2.00 Bohr mag/cell
     absolute magnetization    =     2.00 Bohr mag/cell

     iteration # 11     ecut=   200.00 Ry     beta=0.20
     Davidson diagonalization with overlap
     ethr =  4.17E-07,  avg # of iterations =  1.0

     total cpu time spent up to now is    154.18 secs

     End of self-consistent calculation

 ------ SPIN UP ------------


          k = 0.0000 0.0000 0.0000 (****** PWs)   bands (ev):

   -24.7868 -10.3245 -10.3244 -10.3242  -0.2052   0.3176   0.5947   0.5947

     occupation numbers 
     1.0000   1.0000   1.0000   1.0000   0.0000   0.0000   0.0000   0.0000

 ------ SPIN DOWN ----------


          k = 0.0000 0.0000 0.0000 (****** PWs)   bands (ev):

   -21.5388  -7.2599  -7.2599  -7.2599  -0.1497   0.3747   0.6101   0.6101

     occupation numbers 
     1.0000   0.3351   0.3331   0.3317   0.0000   0.0000   0.0000   0.0000

     the spin up/dw Fermi energies are    -5.7378   -7.2609 ev

!    total energy              =     -31.56730146 Ry
     Harris-Foulkes estimate   =     -31.56730125 Ry
     estimated scf accuracy    <       0.00000047 Ry

     The total energy is the sum of the following terms:

     one-electron contribution =     -45.28014825 Ry
     hartree contribution      =      23.75925464 Ry
     xc contribution           =      -6.44277767 Ry
     ewald contribution        =      -3.60343922 Ry
     - averaged Fock potential =       0.00000000 Ry
     + Fock energy             =       0.00000000 Ry
     smearing contrib. (-TS)   =      -0.00019095 Ry

     total magnetization       =     2.00 Bohr mag/cell
     absolute magnetization    =     2.00 Bohr mag/cell

     convergence has been achieved in  11 iterations

     Writing output data file O.q0.save

     Writing output data file O.q0.save
 
     init_run     :     19.53s CPU     19.79s WALL (       1 calls)
     electrons    :    130.16s CPU    134.37s WALL (       1 calls)

     Called by init_run:
     wfcinit      :      2.47s CPU      2.50s WALL (       1 calls)
     potinit      :      6.06s CPU      6.12s WALL (       1 calls)

     Called by electrons:
     c_bands      :     76.49s CPU     77.45s WALL (      11 calls)
     sum_band     :     21.47s CPU     21.58s WALL (      11 calls)
     v_of_rho     :      4.34s CPU      4.42s WALL (      12 calls)
     v_h          :      1.96s CPU      1.99s WALL (      12 calls)
     v_xc         :      2.38s CPU      2.43s WALL (      12 calls)
     mix_rho      :     10.82s CPU     11.05s WALL (      11 calls)

     Called by c_bands:
     init_us_2    :      0.23s CPU      0.23s WALL (      46 calls)
     cegterg      :     76.11s CPU     77.06s WALL (      22 calls)

     Called by sum_band:

     Called by *egterg:
     h_psi        :     74.82s CPU     75.37s WALL (      86 calls)
     g_psi        :      0.44s CPU      0.44s WALL (      62 calls)
     cdiaghg      :      0.02s CPU      0.02s WALL (      84 calls)
     cegterg:over :      0.96s CPU      0.94s WALL (      62 calls)
     cegterg:upda :      1.07s CPU      1.10s WALL (      62 calls)
     cegterg:last :      0.46s CPU      0.47s WALL (      26 calls)

     Called by h_psi:
     h_psi:vloc   :     74.04s CPU     74.57s WALL (      86 calls)
     h_psi:vnl    :      0.39s CPU      0.39s WALL (      86 calls)
     add_vuspsi   :      0.19s CPU      0.23s WALL (      86 calls)

     General routines
     calbec       :      0.19s CPU      0.16s WALL (      86 calls)
     cft3s        :     90.29s CPU     91.05s WALL (    1281 calls)
 
     Parallel routines
     fft_scatter  :     21.67s CPU     22.15s WALL (    1281 calls)
     EXX routines
 
     PWSCF        :  2m38.93s CPU time,     2m44.66s WALL time

 
   This run was terminated on:  17:21: 8  17Jun2014            

=------------------------------------------------------------------------------=
   JOB DONE.
=------------------------------------------------------------------------------=
