
     Program PWSCF v.4.2        starts on 17Jun2014 at 17:26:34 

     This program is part of the open-source Quantum ESPRESSO suite
     for quantum simulation of materials; please acknowledge
         "P. Giannozzi et al., J. Phys.:Condens. Matter 21 395502 (2009);
          URL http://www.quantum-espresso.org", 
     in publications or presentations arising from this work. More details at
     http://www.quantum-espresso.org/wiki/index.php/Citing_Quantum-ESPRESSO

     Parallel version (MPI), running on    16 processors
     R & G space division:  proc/pool =   16

     EXPERIMENTAL VERSION WITH EXACT EXCHANGE

     Current dimensions of program PWSCF are:
     Max number of different atomic species (ntypx) = 10
     Max number of k-points (npk) =  40000
     Max angular momentum in pseudopotentials (lmaxx) =  3
     Waiting for input...

     XC functional enforced from input :
     Exchange-correlation      = LDA (1100)
     EXX-fraction              =        0.00
     !!! Any further DFT definition will be discarded
     !!! Please, verify this is what you really want !

     file O.BFD.upf: wavefunction(s)  0s 0p renormalized

     Subspace diagonalization in iterative solution of the eigenvalue problem:
     Too few electrons for parallel  algorithm: we need # of bands >= SQRT(nproc)
     a serial algorithm will be used


     Planes per process (thick) : nr3 = 256 npp =   16 ncplane = 65536
 
     Proc/  planes cols     G    planes cols    G      columns  G
     Pool       (dense grid)       (smooth grid)      (wavefct grid)
        1    16   3198   544004   16   3198   544004    798    68032
        2    16   3198   544004   16   3198   544004    798    68032
        3    16   3198   544004   16   3198   544004    798    68032
        4    16   3198   544004   16   3198   544004    798    68032
        5    16   3198   544004   16   3198   544004    798    68032
        6    16   3198   544004   16   3198   544004    800    68034
        7    16   3197   543999   16   3197   543999    800    68034
        8    16   3197   543999   16   3197   543999    800    68034
        9    16   3197   543999   16   3197   543999    800    68034
       10    16   3198   544002   16   3198   544002    800    68034
       11    16   3198   544002   16   3198   544002    800    68034
       12    16   3198   544002   16   3198   544002    799    68031
       13    16   3198   544002   16   3198   544002    799    68033
       14    16   3198   544002   16   3198   544002    799    68033
       15    16   3198   544002   16   3198   544002    799    68033
       16    16   3198   544002   16   3198   544002    799    68033
     tot    256  51165  8704035  256  51165  8704035  12785  1088527
 


     bravais-lattice index     =            0
     lattice parameter (a_0)   =       1.0000  a.u.
     unit-cell volume          =   22775.6360 (a.u.)^3
     number of atoms/cell      =            1
     number of atomic types    =            1
     number of electrons       =         5.00 (up:   4.00, down:   1.00)
     number of Kohn-Sham states=            8
     kinetic-energy cutoff     =     200.0000  Ry
     charge density cutoff     =     800.0000  Ry
     convergence threshold     =      1.0E-06
     mixing beta               =       0.2000
     number of iterations used =            8  plain     mixing
     Exchange-correlation      = LDA (1100)
     EXX-fraction              =        0.00

     celldm(1)=   1.000000  celldm(2)=   0.000000  celldm(3)=   0.000000
     celldm(4)=   0.000000  celldm(5)=   0.000000  celldm(6)=   0.000000

     crystal axes: (cart. coord. in units of a_0)
               a(1) = ( 28.345892  0.000000  0.000000 )  
               a(2) = (  0.000000 28.345895  0.000000 )  
               a(3) = (  0.000000  0.000000 28.345898 )  

     reciprocal axes: (cart. coord. in units 2 pi/a_0)
               b(1) = (  0.035278  0.000000  0.000000 )  
               b(2) = (  0.000000  0.035278  0.000000 )  
               b(3) = (  0.000000  0.000000  0.035278 )  


     PseudoPot. # 1 for O  read from file O.BFD.upf
     Pseudo is Norm-conserving, Zval =  6.0
     Generated by new atomic code, or converted to UPF format
     Using radial grid of 2000 points,  1 beta functions with: 
                l(1) =   0

     atomic species   valence    mass     pseudopotential
        O              6.00    15.99900     O ( 1.00)

     Starting magnetic structure 
     atomic species   magnetization
        O            0.000

     No symmetry found
                                    s                        frac. trans.

      isym =  1     identity                                     

 cryst.   s( 1) = (     1          0          0      )    f =(  0.0000000 )
                  (     0          1          0      )       (  0.0000000 )
                  (     0          0          1      )       (  0.0000000 )

 cart.    s( 1) = (  1.0000000  0.0000000  0.0000000 )    f =(  0.0000000 )
                  (  0.0000000  1.0000000  0.0000000 )       (  0.0000000 )
                  (  0.0000000  0.0000000  1.0000000 )       (  0.0000000 )


     point group C_1 (1)    
     there are  1 classes
     the character table:

       E    
A      1.00

     the symmetry operations in each class:
     E        1

   Cartesian axes

     site n.     atom                  positions (a_0 units)
         1           O   tau(  1) = (  14.1729460  14.1729474  14.1729488  )

   Crystallographic axes

     site n.     atom                  positions (cryst. coord.)
         1           O   tau(  1) = (  0.5000000  0.5000000  0.5000000  )

     number of k points=     2  gaussian broad. (Ry)=  0.0001     ngauss = -99
                       cart. coord. in units 2pi/a_0
        k(    1) = (   0.0000000   0.0000000   0.0000000), wk =   1.0000000
        k(    2) = (   0.0000000   0.0000000   0.0000000), wk =   1.0000000

                       cryst. coord.
        k(    1) = (   0.0000000   0.0000000   0.0000000), wk =   1.0000000
        k(    2) = (   0.0000000   0.0000000   0.0000000), wk =   1.0000000

     G cutoff =   20.2642  (8704035 G-vectors)     FFT grid: (256,256,256)

     Largest allocated arrays     est. size (Mb)     dimensions
        Kohn-Sham Wavefunctions         8.30 Mb     (  68032,   8)
        NL pseudopotentials             1.04 Mb     (  68032,   1)
        Each V/rho on FFT grid         32.00 Mb     (1048576,   2)
        Each G-vector array             4.15 Mb     ( 544004)
        G-vector shells                 1.85 Mb     ( 242791)
     Largest temporary arrays     est. size (Mb)     dimensions
        Auxiliary wavefunctions        33.22 Mb     (  68032,  32)
        Each subspace H/S matrix        0.02 Mb     (     32,  32)
        Each <psi_i|beta_j> matrix      0.00 Mb     (      1,   8)
        Arrays for rho mixing         128.00 Mb     (1048576,   8)

     Initial potential from superposition of free atoms

     starting charge    0.47747, renormalised to    5.00000

     negative rho (up, down):  0.592E-03 0.592E-03
     Starting wfc are    4 atomic +    4 random wfc

     total cpu time spent up to now is     19.75 secs

     per-process dynamical memory:   264.3 Mb

     Self-consistent Calculation

     iteration #  1     ecut=   200.00 Ry     beta=0.20
     Davidson diagonalization with overlap
     ethr =  1.00E-02,  avg # of iterations =  4.0

     negative rho (up, down):  0.473E-03 0.474E-03

     total cpu time spent up to now is     34.94 secs

     total energy              =     -30.51311179 Ry
     Harris-Foulkes estimate   =     -30.44916611 Ry
     estimated scf accuracy    <       0.48799300 Ry

     total magnetization       =     3.00 Bohr mag/cell
     absolute magnetization    =     3.00 Bohr mag/cell

     iteration #  2     ecut=   200.00 Ry     beta=0.20
     Davidson diagonalization with overlap
     ethr =  9.76E-03,  avg # of iterations =  1.0

     negative rho (up, down):  0.856E-04 0.869E-04

     total cpu time spent up to now is     45.04 secs

     total energy              =     -30.63524110 Ry
     Harris-Foulkes estimate   =     -30.51544692 Ry
     estimated scf accuracy    <       0.28285406 Ry

     total magnetization       =     3.00 Bohr mag/cell
     absolute magnetization    =     3.00 Bohr mag/cell

     iteration #  3     ecut=   200.00 Ry     beta=0.20
     Davidson diagonalization with overlap
     ethr =  5.66E-03,  avg # of iterations =  1.5

     negative rho (up, down):  0.330E-04 0.354E-04

     total cpu time spent up to now is     55.42 secs

     total energy              =     -30.66845758 Ry
     Harris-Foulkes estimate   =     -30.66087901 Ry
     estimated scf accuracy    <       0.00900013 Ry

     total magnetization       =     3.00 Bohr mag/cell
     absolute magnetization    =     3.00 Bohr mag/cell

     iteration #  4     ecut=   200.00 Ry     beta=0.20
     Davidson diagonalization with overlap
     ethr =  1.80E-04,  avg # of iterations =  2.5

     negative rho (up, down):  0.433E-05 0.115E-04

     total cpu time spent up to now is     69.40 secs

     total energy              =     -30.66124247 Ry
     Harris-Foulkes estimate   =     -30.68038424 Ry
     estimated scf accuracy    <       0.03642806 Ry

     total magnetization       =     3.00 Bohr mag/cell
     absolute magnetization    =     3.00 Bohr mag/cell

     iteration #  5     ecut=   200.00 Ry     beta=0.20
     Davidson diagonalization with overlap
     ethr =  1.80E-04,  avg # of iterations =  2.0

     negative rho (up, down):  0.422E-05 0.109E-04

     total cpu time spent up to now is     81.13 secs

     total energy              =     -30.66675100 Ry
     Harris-Foulkes estimate   =     -30.66674338 Ry
     estimated scf accuracy    <       0.00001176 Ry

     total magnetization       =     3.00 Bohr mag/cell
     absolute magnetization    =     3.00 Bohr mag/cell

     iteration #  6     ecut=   200.00 Ry     beta=0.20
     Davidson diagonalization with overlap
     ethr =  2.35E-07,  avg # of iterations =  4.0

     negative rho (up, down):  0.348E-07 0.605E-08

     total cpu time spent up to now is     95.27 secs

     total energy              =     -30.66678981 Ry
     Harris-Foulkes estimate   =     -30.66675225 Ry
     estimated scf accuracy    <       0.00001127 Ry

     total magnetization       =     3.00 Bohr mag/cell
     absolute magnetization    =     3.00 Bohr mag/cell

     iteration #  7     ecut=   200.00 Ry     beta=0.20
     Davidson diagonalization with overlap
     ethr =  2.25E-07,  avg # of iterations =  1.5

     total cpu time spent up to now is    106.05 secs

     total energy              =     -30.66678552 Ry
     Harris-Foulkes estimate   =     -30.66679251 Ry
     estimated scf accuracy    <       0.00001325 Ry

     total magnetization       =     3.00 Bohr mag/cell
     absolute magnetization    =     3.00 Bohr mag/cell

     iteration #  8     ecut=   200.00 Ry     beta=0.20
     Davidson diagonalization with overlap
     ethr =  2.25E-07,  avg # of iterations =  2.0

     total cpu time spent up to now is    114.21 secs

     End of self-consistent calculation

 ------ SPIN UP ------------


          k = 0.0000 0.0000 0.0000 (****** PWs)   bands (ev):

   -38.3179 -23.5938 -23.5938 -23.5938  -3.4683  -1.1226  -1.1226  -1.1226

     occupation numbers 
     1.0000   1.0000   1.0000   1.0000   0.0000   0.0000   0.0000   0.0000

 ------ SPIN DOWN ----------


          k = 0.0000 0.0000 0.0000 (****** PWs)   bands (ev):

   -32.3171 -17.5798 -17.5798 -17.5798  -2.8045  -0.7192  -0.7192  -0.7192

     occupation numbers 
     1.0000   0.0000   0.0000   0.0000   0.0000   0.0000   0.0000   0.0000

     the spin up/dw Fermi energies are   -19.5185  -19.5185 ev

!    total energy              =     -30.66678740 Ry
     Harris-Foulkes estimate   =     -30.66678742 Ry
     estimated scf accuracy    <       0.00000006 Ry

     The total energy is the sum of the following terms:

     one-electron contribution =     -39.76215634 Ry
     hartree contribution      =      18.49605329 Ry
     xc contribution           =      -5.79724512 Ry
     ewald contribution        =      -3.60343922 Ry
     - averaged Fock potential =       0.00000000 Ry
     + Fock energy             =       0.00000000 Ry
     smearing contrib. (-TS)   =       0.00000000 Ry

     total magnetization       =     3.00 Bohr mag/cell
     absolute magnetization    =     3.00 Bohr mag/cell

     convergence has been achieved in   8 iterations

     Writing output data file O.q1.save

     Writing output data file O.q1.save
 
     init_run     :     19.45s CPU     19.73s WALL (       1 calls)
     electrons    :     90.46s CPU     94.46s WALL (       1 calls)

     Called by init_run:
     wfcinit      :      2.45s CPU      2.52s WALL (       1 calls)
     potinit      :      5.99s CPU      6.06s WALL (       1 calls)

     Called by electrons:
     c_bands      :     53.47s CPU     54.43s WALL (       8 calls)
     sum_band     :     15.57s CPU     15.78s WALL (       8 calls)
     v_of_rho     :      3.35s CPU      3.41s WALL (       9 calls)
     v_h          :      1.58s CPU      1.61s WALL (       9 calls)
     v_xc         :      1.77s CPU      1.80s WALL (       9 calls)
     mix_rho      :      6.16s CPU      6.35s WALL (       8 calls)

     Called by c_bands:
     init_us_2    :      0.16s CPU      0.17s WALL (      34 calls)
     cegterg      :     53.20s CPU     54.16s WALL (      16 calls)

     Called by sum_band:

     Called by *egterg:
     h_psi        :     53.05s CPU     53.76s WALL (      55 calls)
     g_psi        :      0.30s CPU      0.29s WALL (      37 calls)
     cdiaghg      :      0.03s CPU      0.01s WALL (      53 calls)
     cegterg:over :      0.69s CPU      0.69s WALL (      37 calls)
     cegterg:upda :      0.76s CPU      0.78s WALL (      37 calls)
     cegterg:last :      0.22s CPU      0.23s WALL (      16 calls)

     Called by h_psi:
     h_psi:vloc   :     52.44s CPU     53.14s WALL (      55 calls)
     h_psi:vnl    :      0.33s CPU      0.34s WALL (      55 calls)
     add_vuspsi   :      0.14s CPU      0.17s WALL (      55 calls)

     General routines
     calbec       :      0.19s CPU      0.17s WALL (      55 calls)
     cft3s        :     64.61s CPU     65.56s WALL (     906 calls)
 
     Parallel routines
     fft_scatter  :     19.58s CPU     20.40s WALL (     906 calls)
     EXX routines
 
     PWSCF        :  1m59.04s CPU time,     2m 4.72s WALL time

 
   This run was terminated on:  17:28:38  17Jun2014            

=------------------------------------------------------------------------------=
   JOB DONE.
=------------------------------------------------------------------------------=
