  Input file(s): O.q1.opt.in.xml 

=====================================================
                    QMCPACK 1.0.0 

  (c) Copyright 2003-  QMCPACK developers            

  Subversion branch 6936
  Last modified     2016-05-23 14:12:59 +0000 (Mon, 23 May 2016)
=====================================================
  Global options 
  async_swap=0 : using blocking send/recv for walker swaps 

  MPI Nodes            = 32
  MPI Nodes per group  = 32
  MPI Group ID         = 0
  OMP_NUM_THREADS      = 16

  Input XML = O.q1.opt.in.xml

  Project = O.q1.opt
  date    = 2016-05-27 16:55:37 UTC
  host    = Q02-I0-J03.vesta.itd
  user    = krogel

  DO NOT READ DENSITY
  Offset for the random number seeds based on time 9
  Random number offset = 9  seeds = 31-3761
  Create Global SuperCell 
  Simulation cell radius = 9.448631
  Wigner-Seitz    radius = 9.448631
<unitcell>
<parameter name="lattice">
     18.8972613300      0.0000000000      0.0000000000
      0.0000000000     18.8972613300      0.0000000000
      0.0000000000      0.0000000000     18.8972613300
</parameter>
<parameter name="bconds">  n  n  n </parameter>
<note>
Volume (A^3) = 6748.3345843151
Reciprocal vectors without 2*pi.
g_1 =       0.0529177209      0.0000000000      0.0000000000
g_2 =       0.0000000000      0.0529177209      0.0000000000
g_3 =       0.0000000000      0.0000000000      0.0529177209
Metric tensor in real-space.
h_1 = 357.1064857743 0.0000000000 0.0000000000 
h_2 = 0.0000000000 357.1064857743 0.0000000000 
h_3 = 0.0000000000 0.0000000000 357.1064857743 
Metric tensor in g-space.
h_1 = 0.1105508278 0.0000000000 0.0000000000 
h_2 = 0.0000000000 0.1105508278 0.0000000000 
h_3 = 0.0000000000 0.0000000000 0.1105508278 
</note>
<note>
	Long-range breakup parameters:
	rc*kc = 15.0000000000; rc = 1000000.0000000000; kc = 0.0000000000

</note>
</unitcell>
  Creating ion0 particleset
  Initializing the lattice of ion0 by the global supercell
  All the species have the same mass 1.0000000000
Particles are grouped. Safe to use groups 
ion0
  Creating e particleset
  Initializing the lattice of e by the global supercell
  All the species have the same mass 1.0000000000
Particles are grouped. Safe to use groups 
e
 Adding WavefunctionFactory for psi0
EinsplineSetBuilder:  using libeinspline for B-spline orbitals.
Built BasisSetBuilder "bspline" of type bspline
 Building SPOset  with  basis set.
TOKEN=0 createSPOSetFromXML /soft/applications/qmcpack/src/QMCWaveFunctions/EinsplineSetBuilder_createSPOs.cpp 42
  Distance table for AA: source/target = e
    PBC=open Orthorhombic=NA
 using Cartesian coordinates with 
  ... ParticleSet::addTable Create Table #0 e_e
  Distance table for AB: source = ion0 target = e
    PBC=open Orthorhombic=NA
 using Cartesian coordinates 
  ... ParticleSet::addTable Create Table #1 ion0_e
  TileMatrix = 
 [  1  0  0
    0  1  0
    0  0  1 ]
  Reading 4 orbitals from HDF5 file.
TOKEN=1 ReadOrbitalInfo /soft/applications/qmcpack/src/QMCWaveFunctions/EinsplineSetBuilderOld.cpp 34
  HDF5 orbital file version 2.1.0
TOKEN=2 ReadOrbitalInfo_ESHDF /soft/applications/qmcpack/src/QMCWaveFunctions/EinsplineSetBuilderESHDF.fft.cpp 47
  Reading orbital file in ESHDF format.
  ESHDF orbital file version 2.1.0
  Lattice = 
    [ 18.897261 -0.000000 -0.000000
      -0.000000 18.897261 -0.000000
      -0.000000 -0.000000 18.897261 ]
TOKEN=3 CheckLattice /soft/applications/qmcpack/src/QMCWaveFunctions/EinsplineSetBuilderCommon.cpp 99
  SuperLattice = 
    [ 18.897261  0.000000  0.000000
       0.000000 18.897261  0.000000
       0.000000  0.000000 18.897261 ]
bands=8, elecs=5, spins=2, twists=1, muffin tins=0, core states=0
atomic orbital=0
Atom type(0) = 8
   Skip initialization of the density
TIMER  EinsplineSetBuilder::ReadOrbitalInfo 0.0962989263
TIMER  EinsplineSetBuilder::BroadcastOrbitalInfo 0.0001080275
Found 1 distinct supercell twists.
number of things
1
1
Super twist #0:  [   0.00000   0.00000   0.00000 ]
  Using supercell twist 0:  [   0.00000   0.00000   0.00000]
Using 1 copies of twist angle [-0.000, -0.000, -0.000]
Using real orbitals.
TOKEN=4 OccupyBands /soft/applications/qmcpack/src/QMCWaveFunctions/EinsplineSetBuilderCommon.cpp 763
TOKEN=5 OccupyBands_ESHDF /soft/applications/qmcpack/src/QMCWaveFunctions/EinsplineSetBuilderESHDF.fft.cpp 307
Sorting the bands now:
We will read 4 distinct orbitals.
There are 0 core states and 4 valence states.
TOKEN=6 TileIons /soft/applications/qmcpack/src/QMCWaveFunctions/EinsplineSetBuilderCommon.cpp 291
Rcut = 0.0000000000
dilation = 1
TOKEN=7 bcastSortBands /soft/applications/qmcpack/src/QMCWaveFunctions/einspline_helper.hpp 409
BandInfoGroup::selectBands bigspace has 8 distinct orbitals 
BandInfoGroup::selectBands using distinct orbitals [0,4)
  Number of distinct bands 4
  First Band index 0
  First SPO index 0
  Size of SPOs 4
  AdoptorName = SplineR2RAdoptor
  Using real einspline table
NumDistinctOrbitals 4 numOrbs = 4
  TwistIndex = 0 TwistAngle      -0.0000000000     -0.0000000000     -0.0000000000
   HalfG =                  0                 0                 0
TOKEN=8 ReadGvectors_ESHDF /soft/applications/qmcpack/src/QMCWaveFunctions/EinsplineSetBuilderReadBands_ESHDF.cpp 669
B-spline mesh factor is 1.0000000000
B-spline mesh size is (180, 180, 180)
Maxmimum number of Gvecs 322453
  Using meshsize=               180               180               180
  vs input meshsize=               180               180               180
  Time to read the table in einspline.tile_100010001.spin_0.tw_0.l0u4.g180x180x180.h5 = 0.0014235475
  SplineAdoptorReader initialize_spline_pio 3.0219588225 sec
MEMORY increase 187 MB BsplineSetReader
  MEMORY allocated SplineAdoptorReader 187 MB
TIMER  EinsplineSetBuilder::ReadBands 3.3586457350
   Using Identity for the LCOrbitalSet 
Reuse BasisSetBuilder "bspline" type bspline
 Building SPOset  with  basis set.
TOKEN=9 createSPOSetFromXML /soft/applications/qmcpack/src/QMCWaveFunctions/EinsplineSetBuilder_createSPOs.cpp 42
  ... ParticleSet::addTable Reuse Table #1 ion0_e
TOKEN=10 OccupyBands /soft/applications/qmcpack/src/QMCWaveFunctions/EinsplineSetBuilderCommon.cpp 763
TOKEN=11 OccupyBands_ESHDF /soft/applications/qmcpack/src/QMCWaveFunctions/EinsplineSetBuilderESHDF.fft.cpp 307
Sorting the bands now:
We will read 1 distinct orbitals.
There are 0 core states and 1 valence states.
Rcut = 0.0000000000
dilation = 1
TOKEN=12 bcastSortBands /soft/applications/qmcpack/src/QMCWaveFunctions/einspline_helper.hpp 409
BandInfoGroup::selectBands bigspace has 8 distinct orbitals 
BandInfoGroup::selectBands using distinct orbitals [0,1)
  Number of distinct bands 1
  First Band index 0
  First SPO index 0
  Size of SPOs 1
  AdoptorName = SplineR2RAdoptor
  Using real einspline table
NumDistinctOrbitals 1 numOrbs = 1
  TwistIndex = 0 TwistAngle      -0.0000000000     -0.0000000000     -0.0000000000
   HalfG =                  0                 0                 0
TOKEN=13 ReadGvectors_ESHDF /soft/applications/qmcpack/src/QMCWaveFunctions/EinsplineSetBuilderReadBands_ESHDF.cpp 669
B-spline mesh factor is 1.0000000000
B-spline mesh size is (180, 180, 180)
Maxmimum number of Gvecs 322453
  Using meshsize=               180               180               180
  vs input meshsize=               180               180               180
  Time to read the table in einspline.tile_100010001.spin_1.tw_0.l0u1.g180x180x180.h5 = 0.0014498700
  SplineAdoptorReader initialize_spline_pio 2.8021147275 sec
MEMORY increase 187 MB BsplineSetReader
  MEMORY allocated SplineAdoptorReader 187 MB
TIMER  EinsplineSetBuilder::ReadBands 2.8982595750
   Using Identity for the LCOrbitalSet 
  Creating a determinant updet group=0 sposet=updet
  Reusing a SPO set updet

  Creating a determinant downdet group=1 sposet=downdet
  Reusing a SPO set downdet

  FermionWF=SlaterDet
  BsplineJastrowBuilder adds a functor with cusp = -0.2500000000
 size = 8 parameters 
 cusp = -0.2500000000
 rcut = 10.0000000000
Parameter     Name      Value
uu_0 0.0000000000 1 1  ON 0
uu_1 0.0000000000 1 1  ON 1
uu_2 0.0000000000 1 1  ON 2
uu_3 0.0000000000 1 1  ON 3
uu_4 0.0000000000 1 1  ON 4
uu_5 0.0000000000 1 1  ON 5
uu_6 0.0000000000 1 1  ON 6
uu_7 0.0000000000 1 1  ON 7
  BsplineJastrowBuilder adds a functor with cusp = -0.5000000000
 size = 8 parameters 
 cusp = -0.5000000000
 rcut = 10.0000000000
Parameter     Name      Value
ud_0 0.0000000000 1 1  ON 0
ud_1 0.0000000000 1 1  ON 1
ud_2 0.0000000000 1 1  ON 2
ud_3 0.0000000000 1 1  ON 3
ud_4 0.0000000000 1 1  ON 4
ud_5 0.0000000000 1 1  ON 5
ud_6 0.0000000000 1 1  ON 6
ud_7 0.0000000000 1 1  ON 7

  Using BsplineBuilder for one-body jastrow with B-spline functions
  ... ParticleSet::addTable Reuse Table #1 ion0_e
  ... ParticleSet::addTable Reuse Table #1 ion0_e
 size = 8 parameters 
 cusp = 0.0000000000
 rcut = 5.0000000000
Parameter     Name      Value
eO_0 0.0000000000 1 1  ON 0
eO_1 0.0000000000 1 1  ON 1
eO_2 0.0000000000 1 1  ON 2
eO_3 0.0000000000 1 1  ON 3
eO_4 0.0000000000 1 1  ON 4
eO_5 0.0000000000 1 1  ON 5
eO_6 0.0000000000 1 1  ON 6
eO_7 0.0000000000 1 1  ON 7
  QMCHamiltonian::addOperator Kinetic to H, physical Hamiltonian 
  ... ParticleSet::addTable Reuse Table #0 e_e
  QMCHamiltonian::addOperator ElecElec to H, physical Hamiltonian 
QMCHamiltonian::addOperatorType added type coulomb named ElecElec
  CoulombAA for ion0 is not created.  Number of particles == 1 and nonPeriodic

  ECPotential builder for pseudopotential 

  Adding pseudopotential for O
   Linear grid  ri=0.0000000000 rf=10.0000000000 npts = 10001
    ECPComponentBuilder::buildSemiLocalAndLocal 
    Assuming Hartree unit
   Number of angular momentum channels 2
   Maximum angular momentum channel 1
   Creating a Linear Grid Rmax=1.3100000000
  Using global grid with delta = 0.0010000000
   Making L=1 a local potential with a radial cutoff of 9.9980000000
  NonLocalECPComponent::resize_warrays 
    Non-local pseudopotential parameters
    Maximum angular mementum = 0
    Number of non-local channels = 1
       l(0)=0
    Cutoff radius = 1.3100000000
    Spherical grids and weights: 
             1.0000000000      0.0000000000      0.0000000000        0.0833333333
            -1.0000000000      0.0000000000      0.0000000000        0.0833333333
             0.4472135955      0.8944271910      0.0000000000        0.0833333333
            -0.4472135955      0.7236067977      0.5257311121        0.0833333333
             0.4472135955      0.2763932023      0.8506508084        0.0833333333
            -0.4472135955     -0.2763932023      0.8506508084        0.0833333333
             0.4472135955     -0.7236067977      0.5257311121        0.0833333333
            -0.4472135955     -0.8944271910      0.0000000000        0.0833333333
             0.4472135955     -0.7236067977     -0.5257311121        0.0833333333
            -0.4472135955     -0.2763932023     -0.8506508084        0.0833333333
             0.4472135955      0.2763932023     -0.8506508084        0.0833333333
            -0.4472135955      0.7236067977     -0.5257311121        0.0833333333
    Maximum cutoff radius 1.3100000000
  ... ParticleSet::addTable Reuse Table #1 ion0_e
  QMCHamiltonian::addOperator LocalECP to H, physical Hamiltonian 
  ... ParticleSet::addTable Reuse Table #1 ion0_e
  ... ParticleSet::addTable Reuse Table #1 ion0_e

  Using NonLocalECP potential 
    Maximum grid on a sphere for NonLocalECPotential: 12
  QMCHamiltonian::addOperator NonLocalECP to H, physical Hamiltonian 
QMCHamiltonian::addOperatorType added type pseudo named PseudoPot

  QMCHamiltonian::add2WalkerProperty added
    4 to P::PropertyList 
    0 to P::Collectables 
    starting Index of the observables in P::PropertyList = 9
  Hamiltonian disables VirtualMoves
ParticleSetPool::randomize 
<init source="ion0" target="e">
</init>
=========================================================
 Summary of QMC systems 
=========================================================
ParticleSetPool has: 

  ParticleSet e : 0 4 5 

    5

    u  1.0351252111e+01  9.6148958488e+00  8.2122883649e+00
    u  1.1979037537e+01  7.9821019811e+00  8.2129608781e+00
    u  7.4547554088e+00  6.8301203488e+00  9.0195790963e+00
    u  1.0080627672e+01  9.5612575760e+00  1.0044809179e+01
    d  1.1576250186e+01  8.2451656625e+00  9.8368098239e+00

  ParticleSet ion0 : 0 1 

    1

    O  9.4486306700e+00  9.4486316100e+00  9.4486325500e+00

  Hamiltonian h0
  Kinetic         Kinetic energy
  ElecElec        CoulombAA source/target e

  LocalECP        LocalECPotential: ion0
  NonLocalECP     NonLocalECPotential: ion0
Loop execution max-interations = 12

=========================================================
  Start QMCFixedSampleLinearOptimize
  File Root O.q1.opt.s000 append = no 
=========================================================
  Skip QMCDriver::putQMCInfo 
  Resetting Properties of the walkers 1 x 13
  Adding 16 walkers to 0 existing sets
  Total number of walkers: 5.1200000000e+02
  Total weight: 5.1200000000e+02

=========================================================
  Start VMCSingleOMP
  File Root O.q1.opt.s000 append = no 
=========================================================
  Using the current 16 walkers.
  Total number of walkers: 5.1200000000e+02
  Total weight: 5.1200000000e+02
  Resetting Properties of the walkers 1 x 13

<vmc function="put">
  qmc_counter=0  my_counter=0
  time step      = 3.0000000000e-01
  blocks         = 200
  steps          = 1
  substeps       = 1
  current        = 0
  target samples = 5.1200000000e+04
  walkers/mpi    = 16

  stepsbetweensamples = 2
<parameter name="blocks" condition="int">200</parameter>
<parameter name="check_properties" condition="int">100</parameter>
<parameter name="checkproperties" condition="int">100</parameter>
<parameter name="current" condition="int">0</parameter>
<parameter name="dmcwalkersperthread" condition="real">1.0000000000e+02</parameter>
<parameter name="maxcpusecs" condition="real">3.6000000000e+05</parameter>
<parameter name="record_configs" condition="int">0</parameter>
<parameter name="record_walkers" condition="int">2</parameter>
<parameter name="recordconfigs" condition="int">0</parameter>
<parameter name="recordwalkers" condition="int">2</parameter>
<parameter name="rewind" condition="int">0</parameter>
<parameter name="samples" condition="real">5.1200000000e+04</parameter>
<parameter name="samplesperthread" condition="real">1.0000000000e+02</parameter>
<parameter name="steps" condition="int">1</parameter>
<parameter name="stepsbetweensamples" condition="int">2</parameter>
<parameter name="store_configs" condition="int">0</parameter>
<parameter name="storeconfigs" condition="int">0</parameter>
<parameter name="sub_steps" condition="int">1</parameter>
<parameter name="substeps" condition="int">1</parameter>
<parameter name="tau" condition="au">3.0000000000e-01</parameter>
<parameter name="time_step" condition="au">3.0000000000e-01</parameter>
<parameter name="timestep" condition="au">3.0000000000e-01</parameter>
<parameter name="use_drift" condition="string">no</parameter>
<parameter name="usedrift" condition="string">no</parameter>
<parameter name="walkers" condition="int">16</parameter>
<parameter name="warmup_steps" condition="int">50</parameter>
<parameter name="warmupsteps" condition="int">50</parameter>
  DumpConfig==false Nothing (configurations, state) will be saved.
  Walker Samples are dumped every 2 steps.
</vmc>
  Adding a default LocalEnergyEstimator for the MainEstimator 
 Using QMCCostFunctionOMP::QMCCostFunctionOMP
  Adding a default LocalEnergyEstimator for the MainEstimator 
<optimization-report>
<vmc stage="main" blocks="200">
  CloneManager::makeClones makes 16 clones for W/Psi/H.
  Cloning methods for both Psi and H are used
  Initial partition of walkers 0 1 2 3 4 5 6 7 8 9 10 11 12 13 14 15 16 
  PbyP moves with |psi^2|, using VMCUpdatePbyP

  Total Sample Size   =51200
  Walker distribution on root = 0 1 2 3 4 5 6 7 8 9 10 11 12 13 14 15 16 
  Anonymous Buffer size per walker 302
MEMORY increase 0 MB VMCSingleOMP::resetRun
====================================================
  SimpleFixedNodeBranch::finalize after a VMC block
    QMC counter        = 0
    time step          = 0.3
    reference energy   = -15.2641
    reference variance = 1.1195
====================================================
  Execution time = 5.5006776100e+00
</vmc>
<opt stage="setup">
  <log>
   Reading configurations from h5FileRoot O.q1.opt.s000
  QMCCostFunctionOMP is created with 16
   Loading configuration from MCWalkerConfiguration::SampleStack 
    number of walkers before load 16
  Using Nonlocal PP in Opt: NonLocalECP
    number of walkers after load: 100 100 100 100 100 100 100 100 100 100 100 100 100 100 100 100 
Using buffers for temporary storage in QMCCostFunction.

Memory usage: 
Linear method (approx matrix usage: 4*N^2): 1.8432000000e-02 MB
Deriv,HDerivRecord:      9.2160000000e-01 MB
Buffer memory cost:     MB/walker       MB/total 
Orbitals only:           1.3600000000e-04      2.1760000000e-01
Orbitals + dervs:        4.8800000000e-04      7.8080000000e-01
Inverse:                 0.0000000000e+00      0.0000000000e+00
Determinants:            0.0000000000e+00      0.0000000000e+00
  VMC Eavg = -1.5305044350e+01
  VMC Evar = 1.0546459300e+00
  Total weights = 5.1200000000e+04
  Execution time = 1.6861922375e-01
  </log>
</opt>
<opt stage="main" walkers="51200">
  <log>
Iteration: 1/1
od_largest 3.7740016828e+11
  stabilityBase -1.6000000000e+01
  stabilizerScale 1.0000000000e+00
  Using XS:-1.6000000000e+01 0 0
ERROR CostFunction-> Number of Effective Walkers is too small 1.9465311001e+04 NumWalkersEff/NumSamples 3.8018185549e-01
ERROR CostFunction-> Number of Effective Walkers is too small 2.4892349266e+00 NumWalkersEff/NumSamples 4.8617869660e-05
ERROR CostFunction-> Number of Effective Walkers is too small 1.0090485807e+00 NumWalkersEff/NumSamples 1.9707980093e-05
ERROR CostFunction-> Number of Effective Walkers is too small 1.0007966136e+00 NumWalkersEff/NumSamples 1.9546808860e-05
ERROR CostFunction-> Number of Effective Walkers is too small 1.0308347778e+00 NumWalkersEff/NumSamples 2.0133491754e-05
ERROR CostFunction-> Number of Effective Walkers is too small 1.0090485807e+00 NumWalkersEff/NumSamples 1.9707980093e-05
  Failed Step. Largest LM parameter change:8.3322594465e+01
ERROR   Using XS:-1.5000000000e+01 1 0
ERROR CostFunction-> Number of Effective Walkers is too small 1.9465307672e+04 NumWalkersEff/NumSamples 3.8018179047e-01
ERROR CostFunction-> Number of Effective Walkers is too small 2.4892347906e+00 NumWalkersEff/NumSamples 4.8617867004e-05
ERROR CostFunction-> Number of Effective Walkers is too small 1.0090485746e+00 NumWalkersEff/NumSamples 1.9707979972e-05
ERROR CostFunction-> Number of Effective Walkers is too small 1.0007966129e+00 NumWalkersEff/NumSamples 1.9546808845e-05
ERROR CostFunction-> Number of Effective Walkers is too small 1.0308347611e+00 NumWalkersEff/NumSamples 2.0133491427e-05
ERROR CostFunction-> Number of Effective Walkers is too small 1.0090485746e+00 NumWalkersEff/NumSamples 1.9707979972e-05
  Failed Step. Largest LM parameter change:8.3322588502e+01
ERROR   Using XS:-1.4000000000e+01 2 0
ERROR CostFunction-> Number of Effective Walkers is too small 1.9465307373e+04 NumWalkersEff/NumSamples 3.8018178464e-01
ERROR CostFunction-> Number of Effective Walkers is too small 2.4892349042e+00 NumWalkersEff/NumSamples 4.8617869222e-05
ERROR CostFunction-> Number of Effective Walkers is too small 1.0090485761e+00 NumWalkersEff/NumSamples 1.9707980002e-05
ERROR CostFunction-> Number of Effective Walkers is too small 1.0007966130e+00 NumWalkersEff/NumSamples 1.9546808848e-05
ERROR CostFunction-> Number of Effective Walkers is too small 1.0308347661e+00 NumWalkersEff/NumSamples 2.0133491525e-05
ERROR CostFunction-> Number of Effective Walkers is too small 1.0090485761e+00 NumWalkersEff/NumSamples 1.9707980002e-05
  Failed Step. Largest LM parameter change:8.3322584696e+01
ERROR   Using XS:-1.3000000000e+01 3 0
ERROR CostFunction-> Number of Effective Walkers is too small 1.9465311993e+04 NumWalkersEff/NumSamples 3.8018187487e-01
ERROR CostFunction-> Number of Effective Walkers is too small 2.4892349265e+00 NumWalkersEff/NumSamples 4.8617869658e-05
ERROR CostFunction-> Number of Effective Walkers is too small 1.0090485750e+00 NumWalkersEff/NumSamples 1.9707979981e-05
ERROR CostFunction-> Number of Effective Walkers is too small 1.0007966129e+00 NumWalkersEff/NumSamples 1.9546808846e-05
ERROR CostFunction-> Number of Effective Walkers is too small 1.0308347630e+00 NumWalkersEff/NumSamples 2.0133491465e-05
ERROR CostFunction-> Number of Effective Walkers is too small 1.0090485750e+00 NumWalkersEff/NumSamples 1.9707979981e-05
  Failed Step. Largest LM parameter change:8.3322581186e+01
ERROR   Using XS:-1.2000000000e+01 4 0
ERROR CostFunction-> Number of Effective Walkers is too small 1.9465297935e+04 NumWalkersEff/NumSamples 3.8018160030e-01
ERROR CostFunction-> Number of Effective Walkers is too small 2.4892350270e+00 NumWalkersEff/NumSamples 4.8617871622e-05
ERROR CostFunction-> Number of Effective Walkers is too small 1.0090485677e+00 NumWalkersEff/NumSamples 1.9707979838e-05
ERROR CostFunction-> Number of Effective Walkers is too small 1.0007966118e+00 NumWalkersEff/NumSamples 1.9546808824e-05
ERROR CostFunction-> Number of Effective Walkers is too small 1.0308347459e+00 NumWalkersEff/NumSamples 2.0133491130e-05
ERROR CostFunction-> Number of Effective Walkers is too small 1.0090485677e+00 NumWalkersEff/NumSamples 1.9707979838e-05
  Failed Step. Largest LM parameter change:8.3322546171e+01
ERROR   Using XS:-1.1000000000e+01 5 0
ERROR CostFunction-> Number of Effective Walkers is too small 1.9465090648e+04 NumWalkersEff/NumSamples 3.8017755171e-01
ERROR CostFunction-> Number of Effective Walkers is too small 2.4892328831e+00 NumWalkersEff/NumSamples 4.8617829748e-05
ERROR CostFunction-> Number of Effective Walkers is too small 1.0090484240e+00 NumWalkersEff/NumSamples 1.9707977032e-05
ERROR CostFunction-> Number of Effective Walkers is too small 1.0007965931e+00 NumWalkersEff/NumSamples 1.9546808460e-05
ERROR CostFunction-> Number of Effective Walkers is too small 1.0308343674e+00 NumWalkersEff/NumSamples 2.0133483738e-05
ERROR CostFunction-> Number of Effective Walkers is too small 1.0090484240e+00 NumWalkersEff/NumSamples 1.9707977032e-05
  Failed Step. Largest LM parameter change:8.3322269821e+01
ERROR   Using XS:-1.0000000000e+01 6 0
ERROR CostFunction-> Number of Effective Walkers is too small 1.9465025776e+04 NumWalkersEff/NumSamples 3.8017628468e-01
ERROR CostFunction-> Number of Effective Walkers is too small 2.4892328733e+00 NumWalkersEff/NumSamples 4.8617829556e-05
ERROR CostFunction-> Number of Effective Walkers is too small 1.0090484099e+00 NumWalkersEff/NumSamples 1.9707976757e-05
ERROR CostFunction-> Number of Effective Walkers is too small 1.0007965914e+00 NumWalkersEff/NumSamples 1.9546808426e-05
ERROR CostFunction-> Number of Effective Walkers is too small 1.0308343288e+00 NumWalkersEff/NumSamples 2.0133482985e-05
ERROR CostFunction-> Number of Effective Walkers is too small 1.0090484099e+00 NumWalkersEff/NumSamples 1.9707976757e-05
  Failed Step. Largest LM parameter change:8.3321939928e+01
ERROR   Using XS:-9.0000000000e+00 7 0
ERROR CostFunction-> Number of Effective Walkers is too small 1.9464781519e+04 NumWalkersEff/NumSamples 3.8017151405e-01
ERROR CostFunction-> Number of Effective Walkers is too small 2.4892320312e+00 NumWalkersEff/NumSamples 4.8617813109e-05
ERROR CostFunction-> Number of Effective Walkers is too small 1.0090481348e+00 NumWalkersEff/NumSamples 1.9707971382e-05
ERROR CostFunction-> Number of Effective Walkers is too small 1.0007965545e+00 NumWalkersEff/NumSamples 1.9546807705e-05
ERROR CostFunction-> Number of Effective Walkers is too small 1.0308336236e+00 NumWalkersEff/NumSamples 2.0133469211e-05
ERROR CostFunction-> Number of Effective Walkers is too small 1.0090481348e+00 NumWalkersEff/NumSamples 1.9707971382e-05
  Failed Step. Largest LM parameter change:8.3321176540e+01
ERROR   Using XS:-8.0000000000e+00 8 0
ERROR CostFunction-> Number of Effective Walkers is too small 1.9464484196e+04 NumWalkersEff/NumSamples 3.8016570695e-01
ERROR CostFunction-> Number of Effective Walkers is too small 2.4892201586e+00 NumWalkersEff/NumSamples 4.8617581222e-05
ERROR CostFunction-> Number of Effective Walkers is too small 1.0090470205e+00 NumWalkersEff/NumSamples 1.9707949619e-05
ERROR CostFunction-> Number of Effective Walkers is too small 1.0007964100e+00 NumWalkersEff/NumSamples 1.9546804882e-05
ERROR CostFunction-> Number of Effective Walkers is too small 1.0308307000e+00 NumWalkersEff/NumSamples 2.0133412109e-05
ERROR CostFunction-> Number of Effective Walkers is too small 1.0090470205e+00 NumWalkersEff/NumSamples 1.9707949619e-05
  Failed Step. Largest LM parameter change:8.3319701490e+01
ERROR   Using XS:-7.0000000000e+00 9 0
ERROR CostFunction-> Number of Effective Walkers is too small 1.9462834252e+04 NumWalkersEff/NumSamples 3.8013348148e-01
ERROR CostFunction-> Number of Effective Walkers is too small 2.4891855137e+00 NumWalkersEff/NumSamples 4.8616904564e-05
ERROR CostFunction-> Number of Effective Walkers is too small 1.0090438509e+00 NumWalkersEff/NumSamples 1.9707887713e-05
ERROR CostFunction-> Number of Effective Walkers is too small 1.0007959980e+00 NumWalkersEff/NumSamples 1.9546796837e-05
ERROR CostFunction-> Number of Effective Walkers is too small 1.0308223888e+00 NumWalkersEff/NumSamples 2.0133249781e-05
ERROR CostFunction-> Number of Effective Walkers is too small 1.0090438509e+00 NumWalkersEff/NumSamples 1.9707887713e-05
  Failed Step. Largest LM parameter change:8.3314623169e+01
ERROR   Using XS:-6.0000000000e+00 10 0
ERROR CostFunction-> Number of Effective Walkers is too small 1.9459306150e+04 NumWalkersEff/NumSamples 3.8006457325e-01
ERROR CostFunction-> Number of Effective Walkers is too small 2.4890927675e+00 NumWalkersEff/NumSamples 4.8615093115e-05
ERROR CostFunction-> Number of Effective Walkers is too small 1.0090354086e+00 NumWalkersEff/NumSamples 1.9707722825e-05
ERROR CostFunction-> Number of Effective Walkers is too small 1.0007949026e+00 NumWalkersEff/NumSamples 1.9546775442e-05
ERROR CostFunction-> Number of Effective Walkers is too small 1.0308002349e+00 NumWalkersEff/NumSamples 2.0132817088e-05
ERROR CostFunction-> Number of Effective Walkers is too small 1.0090354086e+00 NumWalkersEff/NumSamples 1.9707722825e-05
  Failed Step. Largest LM parameter change:8.3302039517e+01
ERROR   Using XS:-5.0000000000e+00 11 0
ERROR CostFunction-> Number of Effective Walkers is too small 1.9449752692e+04 NumWalkersEff/NumSamples 3.7987798227e-01
ERROR CostFunction-> Number of Effective Walkers is too small 2.4888401172e+00 NumWalkersEff/NumSamples 4.8610158538e-05
ERROR CostFunction-> Number of Effective Walkers is too small 1.0090124479e+00 NumWalkersEff/NumSamples 1.9707274373e-05
ERROR CostFunction-> Number of Effective Walkers is too small 1.0007919264e+00 NumWalkersEff/NumSamples 1.9546717313e-05
ERROR CostFunction-> Number of Effective Walkers is too small 1.0307399534e+00 NumWalkersEff/NumSamples 2.0131639715e-05
ERROR CostFunction-> Number of Effective Walkers is too small 1.0090124479e+00 NumWalkersEff/NumSamples 1.9707274373e-05
  Failed Step. Largest LM parameter change:8.3267847651e+01
ERROR   Using XS:-4.0000000000e+00 12 0
ERROR CostFunction-> Number of Effective Walkers is too small 1.9422207551e+04 NumWalkersEff/NumSamples 3.7933999122e-01
ERROR CostFunction-> Number of Effective Walkers is too small 2.4881684910e+00 NumWalkersEff/NumSamples 4.8597040839e-05
ERROR CostFunction-> Number of Effective Walkers is too small 1.0089511043e+00 NumWalkersEff/NumSamples 1.9706076257e-05
ERROR CostFunction-> Number of Effective Walkers is too small 1.0007839890e+00 NumWalkersEff/NumSamples 1.9546562285e-05
ERROR CostFunction-> Number of Effective Walkers is too small 1.0305787796e+00 NumWalkersEff/NumSamples 2.0128491789e-05
ERROR CostFunction-> Number of Effective Walkers is too small 1.0089511043e+00 NumWalkersEff/NumSamples 1.9706076257e-05
  Failed Step. Largest LM parameter change:8.3172926616e+01
ERROR   Using XS:-3.0000000000e+00 13 0
ERROR CostFunction-> Number of Effective Walkers is too small 1.9349121672e+04 NumWalkersEff/NumSamples 3.7791253266e-01
ERROR CostFunction-> Number of Effective Walkers is too small 2.4863416612e+00 NumWalkersEff/NumSamples 4.8561360570e-05
ERROR CostFunction-> Number of Effective Walkers is too small 1.0087866632e+00 NumWalkersEff/NumSamples 1.9702864516e-05
ERROR CostFunction-> Number of Effective Walkers is too small 1.0007628566e+00 NumWalkersEff/NumSamples 1.9546149542e-05
ERROR CostFunction-> Number of Effective Walkers is too small 1.0301453279e+00 NumWalkersEff/NumSamples 2.0120025935e-05
ERROR CostFunction-> Number of Effective Walkers is too small 1.0087866632e+00 NumWalkersEff/NumSamples 1.9702864516e-05
  Failed Step. Largest LM parameter change:8.2917304289e+01
ERROR   Using XS:-2.0000000000e+00 14 0
ERROR CostFunction-> Number of Effective Walkers is too small 1.9150389162e+04 NumWalkersEff/NumSamples 3.7403103832e-01
ERROR CostFunction-> Number of Effective Walkers is too small 2.4814900792e+00 NumWalkersEff/NumSamples 4.8466603110e-05
ERROR CostFunction-> Number of Effective Walkers is too small 1.0083622463e+00 NumWalkersEff/NumSamples 1.9694575122e-05
ERROR CostFunction-> Number of Effective Walkers is too small 1.0007092638e+00 NumWalkersEff/NumSamples 1.9545102808e-05
ERROR CostFunction-> Number of Effective Walkers is too small 1.0290173601e+00 NumWalkersEff/NumSamples 2.0097995314e-05
ERROR CostFunction-> Number of Effective Walkers is too small 1.0083622463e+00 NumWalkersEff/NumSamples 1.9694575122e-05
  Failed Step. Largest LM parameter change:8.2223830218e+01
ERROR   Using XS:-1.0000000000e+00 15 0
ERROR CostFunction-> Number of Effective Walkers is too small 1.8618931454e+04 NumWalkersEff/NumSamples 3.6365100497e-01
ERROR CostFunction-> Number of Effective Walkers is too small 2.4690893378e+00 NumWalkersEff/NumSamples 4.8224401128e-05
ERROR CostFunction-> Number of Effective Walkers is too small 1.0073547647e+00 NumWalkersEff/NumSamples 1.9674897748e-05
ERROR CostFunction-> Number of Effective Walkers is too small 1.0005877402e+00 NumWalkersEff/NumSamples 1.9542729300e-05
ERROR CostFunction-> Number of Effective Walkers is too small 1.0262816186e+00 NumWalkersEff/NumSamples 2.0044562863e-05
ERROR CostFunction-> Number of Effective Walkers is too small 1.0073547647e+00 NumWalkersEff/NumSamples 1.9674897748e-05
  Failed Step. Largest LM parameter change:8.0359888989e+01
ERROR   Using XS:0.0000000000e+00 16 0
ERROR CostFunction-> Number of Effective Walkers is too small 1.7233632788e+04 NumWalkersEff/NumSamples 3.3659439039e-01
ERROR CostFunction-> Number of Effective Walkers is too small 2.4413690330e+00 NumWalkersEff/NumSamples 4.7682988926e-05
ERROR CostFunction-> Number of Effective Walkers is too small 1.0054263325e+00 NumWalkersEff/NumSamples 1.9637233057e-05
ERROR CostFunction-> Number of Effective Walkers is too small 1.0003792708e+00 NumWalkersEff/NumSamples 1.9538657633e-05
ERROR CostFunction-> Number of Effective Walkers is too small 1.0207683419e+00 NumWalkersEff/NumSamples 1.9936881678e-05
ERROR CostFunction-> Number of Effective Walkers is too small 1.0054263325e+00 NumWalkersEff/NumSamples 1.9637233057e-05
  Failed Step. Largest LM parameter change:7.5438177891e+01
ERROR   Using XS:1.0000000000e+00 17 0
ERROR CostFunction-> Number of Effective Walkers is too small 1.3941436103e+04 NumWalkersEff/NumSamples 2.7229367389e-01
ERROR CostFunction-> Number of Effective Walkers is too small 2.4130036344e+00 NumWalkersEff/NumSamples 4.7128977234e-05
ERROR CostFunction-> Number of Effective Walkers is too small 1.0032112873e+00 NumWalkersEff/NumSamples 1.9593970456e-05
ERROR CostFunction-> Number of Effective Walkers is too small 1.0001830167e+00 NumWalkersEff/NumSamples 1.9534824545e-05
ERROR CostFunction-> Number of Effective Walkers is too small 1.0138111052e+00 NumWalkersEff/NumSamples 1.9800998148e-05
ERROR CostFunction-> Number of Effective Walkers is too small 1.0032112873e+00 NumWalkersEff/NumSamples 1.9593970456e-05
  Failed Step. Largest LM parameter change:6.3105656061e+01
ERROR   Using XS:2.0000000000e+00 18 0
ERROR CostFunction-> Number of Effective Walkers is too small 8.2196275164e+03 NumWalkersEff/NumSamples 1.6053959993e-01
ERROR CostFunction-> Number of Effective Walkers is too small 3.0597993054e+00 NumWalkersEff/NumSamples 5.9761705185e-05
ERROR CostFunction-> Number of Effective Walkers is too small 1.0039168949e+00 NumWalkersEff/NumSamples 1.9607751853e-05
ERROR CostFunction-> Number of Effective Walkers is too small 1.0002392608e+00 NumWalkersEff/NumSamples 1.9535923063e-05
ERROR CostFunction-> Number of Effective Walkers is too small 1.0160634531e+00 NumWalkersEff/NumSamples 1.9844989318e-05
ERROR CostFunction-> Number of Effective Walkers is too small 1.0039168949e+00 NumWalkersEff/NumSamples 1.9607751853e-05
  Failed Step. Largest LM parameter change:3.6571788290e+01
ERROR   Using XS:3.0000000000e+00 19 0
ERROR CostFunction-> Number of Effective Walkers is too small 3.6919088307e+03 NumWalkersEff/NumSamples 7.2107594349e-02
ERROR CostFunction-> Number of Effective Walkers is too small 3.4520547750e+03 NumWalkersEff/NumSamples 6.7422944824e-02
ERROR CostFunction-> Number of Effective Walkers is too small 1.0633306882e+00 NumWalkersEff/NumSamples 2.0768177503e-05
ERROR CostFunction-> Number of Effective Walkers is too small 1.0147823093e+00 NumWalkersEff/NumSamples 1.9819966979e-05
ERROR CostFunction-> Number of Effective Walkers is too small 1.1347021562e+00 NumWalkersEff/NumSamples 2.2162151489e-05
ERROR CostFunction-> Number of Effective Walkers is too small 1.0633306882e+00 NumWalkersEff/NumSamples 2.0768177503e-05
  Good Step. Largest LM parameter change:9.9264729264e+00
ERROR CostFunction-> Number of Effective Walkers is too small 1.1347021562e+00 NumWalkersEff/NumSamples 2.2162151489e-05
 OldCost: 1.0546459300e+00 NewCost: 1.5215502857e+02 Delta Cost:1.5110038264e+02
      Current ene:     -3.5226429362e+02
      Current var:     5.2081172882e+03
      Current ene_urw:     -2.2215484068e+01
      Current var_urw: 1.5215502857e+02
 Cost Function is Invalid. If this frequently, try reducing the step size of the line minimization or reduce the number of cycles. 
  Good Step, but cost function invalid
ERROR   Using XS:4.0000000000e+00 20 0
ERROR CostFunction-> Number of Effective Walkers is too small 2.8180592849e+03 NumWalkersEff/NumSamples 5.5040220408e-02
ERROR CostFunction-> Number of Effective Walkers is too small 2.3643286779e+01 NumWalkersEff/NumSamples 4.6178294490e-04
ERROR CostFunction-> Number of Effective Walkers is too small 8.2143942430e+00 NumWalkersEff/NumSamples 1.6043738756e-04
ERROR CostFunction-> Number of Effective Walkers is too small 7.7972202771e+01 NumWalkersEff/NumSamples 1.5228945854e-03
ERROR CostFunction-> Number of Effective Walkers is too small 2.3643286779e+01 NumWalkersEff/NumSamples 4.6178294490e-04
  Failed Step. Largest LM parameter change:1.6415861354e+01
ERROR Revertting to old Parameters
ERROR   Execution time = 1.0907032344e+01
  </log>
  <optVariables href="O.q1.opt.s000.opt.xml">
uu_0 0.0000000000e+00 1 1  ON 0
uu_1 0.0000000000e+00 1 1  ON 1
uu_2 0.0000000000e+00 1 1  ON 2
uu_3 0.0000000000e+00 1 1  ON 3
uu_4 0.0000000000e+00 1 1  ON 4
uu_5 0.0000000000e+00 1 1  ON 5
uu_6 0.0000000000e+00 1 1  ON 6
uu_7 0.0000000000e+00 1 1  ON 7
ud_0 0.0000000000e+00 1 1  ON 8
ud_1 0.0000000000e+00 1 1  ON 9
ud_2 0.0000000000e+00 1 1  ON 10
ud_3 0.0000000000e+00 1 1  ON 11
ud_4 0.0000000000e+00 1 1  ON 12
ud_5 0.0000000000e+00 1 1  ON 13
ud_6 0.0000000000e+00 1 1  ON 14
ud_7 0.0000000000e+00 1 1  ON 15
eO_0 0.0000000000e+00 1 1  ON 16
eO_1 0.0000000000e+00 1 1  ON 17
eO_2 0.0000000000e+00 1 1  ON 18
eO_3 0.0000000000e+00 1 1  ON 19
eO_4 0.0000000000e+00 1 1  ON 20
eO_5 0.0000000000e+00 1 1  ON 21
eO_6 0.0000000000e+00 1 1  ON 22
eO_7 0.0000000000e+00 1 1  ON 23
  </optVariables>
   Restore the number of walkers to 16, removing 84 walkers.
</opt>
</optimization-report>
  QMC Execution time = 1.0931379204e+01 secs 
  Reusing QMCFixedSampleLinearOptimize
 Using QMCCostFunctionOMP::QMCCostFunctionOMP

=========================================================
  Start QMCFixedSampleLinearOptimize
  File Root O.q1.opt.s001 append = no 
=========================================================
  Skip QMCDriver::putQMCInfo 
  Resetting Properties of the walkers 1 x 13

=========================================================
  Start VMCSingleOMP
  File Root O.q1.opt.s001 append = no 
=========================================================
Using existing walkers 
  Resetting Properties of the walkers 1 x 13

<vmc function="put">
  qmc_counter=1  my_counter=1
  time step      = 3.0000000000e-01
  blocks         = 200
  steps          = 1
  substeps       = 1
  current        = 0
  target samples = 5.1200000000e+04
  walkers/mpi    = 16

  stepsbetweensamples = 2
<parameter name="blocks" condition="int">200</parameter>
<parameter name="check_properties" condition="int">100</parameter>
<parameter name="checkproperties" condition="int">100</parameter>
<parameter name="current" condition="int">0</parameter>
<parameter name="dmcwalkersperthread" condition="real">1.0000000000e+02</parameter>
<parameter name="maxcpusecs" condition="real">3.6000000000e+05</parameter>
<parameter name="record_configs" condition="int">0</parameter>
<parameter name="record_walkers" condition="int">2</parameter>
<parameter name="recordconfigs" condition="int">0</parameter>
<parameter name="recordwalkers" condition="int">2</parameter>
<parameter name="rewind" condition="int">0</parameter>
<parameter name="samples" condition="real">5.1200000000e+04</parameter>
<parameter name="samplesperthread" condition="real">1.0000000000e+02</parameter>
<parameter name="steps" condition="int">1</parameter>
<parameter name="stepsbetweensamples" condition="int">2</parameter>
<parameter name="store_configs" condition="int">0</parameter>
<parameter name="storeconfigs" condition="int">0</parameter>
<parameter name="sub_steps" condition="int">1</parameter>
<parameter name="substeps" condition="int">1</parameter>
<parameter name="tau" condition="au">3.0000000000e-01</parameter>
<parameter name="time_step" condition="au">3.0000000000e-01</parameter>
<parameter name="timestep" condition="au">3.0000000000e-01</parameter>
<parameter name="use_drift" condition="string">no</parameter>
<parameter name="usedrift" condition="string">no</parameter>
<parameter name="walkers" condition="int">1</parameter>
<parameter name="warmup_steps" condition="int">50</parameter>
<parameter name="warmupsteps" condition="int">50</parameter>
  DumpConfig==false Nothing (configurations, state) will be saved.
  Walker Samples are dumped every 2 steps.
</vmc>
<optimization-report>
<vmc stage="main" blocks="200">
  Cannot make clones again. Use existing 16 clones
  Initial partition of walkers 0 1 2 3 4 5 6 7 8 9 10 11 12 13 14 15 16 
  Total Sample Size   =51200
  Walker distribution on root = 0 1 2 3 4 5 6 7 8 9 10 11 12 13 14 15 16 
====================================================
  SimpleFixedNodeBranch::finalize after a VMC block
    QMC counter        = 1
    time step          = 0.3
    reference energy   = -15.2586
    reference variance = 1.12781
====================================================
  Execution time = 5.4976597975e+00
</vmc>
<opt stage="setup">
  <log>
   Reading configurations from h5FileRoot O.q1.opt.s001
  QMCCostFunctionOMP is created with 16
   Loading configuration from MCWalkerConfiguration::SampleStack 
    number of walkers before load 16
  Using Nonlocal PP in Opt: NonLocalECP
    number of walkers after load: 100 100 100 100 100 100 100 100 100 100 100 100 100 100 100 100 
Using buffers for temporary storage in QMCCostFunction.

Memory usage: 
Linear method (approx matrix usage: 4*N^2): 1.8432000000e-02 MB
Deriv,HDerivRecord:      9.2160000000e-01 MB
Buffer memory cost:     MB/walker       MB/total 
Orbitals only:           1.3600000000e-04      2.1760000000e-01
Orbitals + dervs:        4.8800000000e-04      7.8080000000e-01
Inverse:                 0.0000000000e+00      0.0000000000e+00
Determinants:            0.0000000000e+00      0.0000000000e+00
  VMC Eavg = -1.5291906290e+01
  VMC Evar = 1.0130411780e+00
  Total weights = 5.1200000000e+04
  Execution time = 1.7073088375e-01
  </log>
</opt>
<opt stage="main" walkers="51200">
  <log>
Iteration: 1/1
od_largest 6.4874043246e+05
  stabilityBase -1.6000000000e+01
  stabilizerScale 1.0000000000e+00
  Using XS:-1.6000000000e+01 0 0
  Good Step. Largest LM parameter change:1.0291350650e+01
 OldCost: 1.0130411780e+00 NewCost: 8.2580394669e-01 Delta Cost:-1.8723723134e-01
      Current ene:     -1.5324889377e+01
      Current var:     8.0103745252e-01
      Current ene_urw:     -1.5313195907e+01
      Current var_urw: 8.2580394669e-01
Setting new Parameters
ERROR   Execution time = 6.0810888600e+00
  </log>
  <optVariables href="O.q1.opt.s001.opt.xml">
uu_0 3.9713244580e-02 1 1  ON 0
uu_1 2.3365292873e-03 1 1  ON 1
uu_2 -4.9028763367e-03 1 1  ON 2
uu_3 -1.6617315034e-02 1 1  ON 3
uu_4 -1.8840452142e-02 1 1  ON 4
uu_5 -2.1301614742e-01 1 1  ON 5
uu_6 -3.8142034821e-01 1 1  ON 6
uu_7 -1.7162091081e-01 1 1  ON 7
ud_0 1.3022410972e+00 1 1  ON 8
ud_1 1.0665051389e+00 1 1  ON 9
ud_2 1.1306775082e+00 1 1  ON 10
ud_3 1.0058342177e+00 1 1  ON 11
ud_4 1.2674282924e+00 1 1  ON 12
ud_5 1.3672678777e+00 1 1  ON 13
ud_6 5.3674289881e-01 1 1  ON 14
ud_7 1.0291350650e+01 1 1  ON 15
eO_0 -8.3728987016e-01 1 1  ON 16
eO_1 -8.1907467228e-01 1 1  ON 17
eO_2 -8.0242537842e-01 1 1  ON 18
eO_3 -7.7566839702e-01 1 1  ON 19
eO_4 -7.5783285985e-01 1 1  ON 20
eO_5 -7.4128122964e-01 1 1  ON 21
eO_6 -6.8308998469e-01 1 1  ON 22
eO_7 -6.9412092855e-01 1 1  ON 23
  </optVariables>
   Restore the number of walkers to 16, removing 84 walkers.
</opt>
</optimization-report>
  QMC Execution time = 6.1044214662e+00 secs 
  Reusing QMCFixedSampleLinearOptimize
 Using QMCCostFunctionOMP::QMCCostFunctionOMP

=========================================================
  Start QMCFixedSampleLinearOptimize
  File Root O.q1.opt.s002 append = no 
=========================================================
  Skip QMCDriver::putQMCInfo 
  Resetting Properties of the walkers 1 x 13

=========================================================
  Start VMCSingleOMP
  File Root O.q1.opt.s002 append = no 
=========================================================
Using existing walkers 
  Resetting Properties of the walkers 1 x 13

<vmc function="put">
  qmc_counter=2  my_counter=2
  time step      = 3.0000000000e-01
  blocks         = 200
  steps          = 1
  substeps       = 1
  current        = 0
  target samples = 5.1200000000e+04
  walkers/mpi    = 16

  stepsbetweensamples = 2
<parameter name="blocks" condition="int">200</parameter>
<parameter name="check_properties" condition="int">100</parameter>
<parameter name="checkproperties" condition="int">100</parameter>
<parameter name="current" condition="int">0</parameter>
<parameter name="dmcwalkersperthread" condition="real">1.0000000000e+02</parameter>
<parameter name="maxcpusecs" condition="real">3.6000000000e+05</parameter>
<parameter name="record_configs" condition="int">0</parameter>
<parameter name="record_walkers" condition="int">2</parameter>
<parameter name="recordconfigs" condition="int">0</parameter>
<parameter name="recordwalkers" condition="int">2</parameter>
<parameter name="rewind" condition="int">0</parameter>
<parameter name="samples" condition="real">5.1200000000e+04</parameter>
<parameter name="samplesperthread" condition="real">1.0000000000e+02</parameter>
<parameter name="steps" condition="int">1</parameter>
<parameter name="stepsbetweensamples" condition="int">2</parameter>
<parameter name="store_configs" condition="int">0</parameter>
<parameter name="storeconfigs" condition="int">0</parameter>
<parameter name="sub_steps" condition="int">1</parameter>
<parameter name="substeps" condition="int">1</parameter>
<parameter name="tau" condition="au">3.0000000000e-01</parameter>
<parameter name="time_step" condition="au">3.0000000000e-01</parameter>
<parameter name="timestep" condition="au">3.0000000000e-01</parameter>
<parameter name="use_drift" condition="string">no</parameter>
<parameter name="usedrift" condition="string">no</parameter>
<parameter name="walkers" condition="int">1</parameter>
<parameter name="warmup_steps" condition="int">50</parameter>
<parameter name="warmupsteps" condition="int">50</parameter>
  DumpConfig==false Nothing (configurations, state) will be saved.
  Walker Samples are dumped every 2 steps.
</vmc>
<optimization-report>
<vmc stage="main" blocks="200">
  Cannot make clones again. Use existing 16 clones
  Initial partition of walkers 0 1 2 3 4 5 6 7 8 9 10 11 12 13 14 15 16 
  Total Sample Size   =51200
  Walker distribution on root = 0 1 2 3 4 5 6 7 8 9 10 11 12 13 14 15 16 
====================================================
  SimpleFixedNodeBranch::finalize after a VMC block
    QMC counter        = 2
    time step          = 0.3
    reference energy   = -15.3598
    reference variance = 0.927725
====================================================
  Execution time = 5.4949737238e+00
</vmc>
<opt stage="setup">
  <log>
   Reading configurations from h5FileRoot O.q1.opt.s002
  QMCCostFunctionOMP is created with 16
   Loading configuration from MCWalkerConfiguration::SampleStack 
    number of walkers before load 16
  Using Nonlocal PP in Opt: NonLocalECP
    number of walkers after load: 100 100 100 100 100 100 100 100 100 100 100 100 100 100 100 100 
Using buffers for temporary storage in QMCCostFunction.

Memory usage: 
Linear method (approx matrix usage: 4*N^2): 1.8432000000e-02 MB
Deriv,HDerivRecord:      9.2160000000e-01 MB
Buffer memory cost:     MB/walker       MB/total 
Orbitals only:           1.3600000000e-04      2.1760000000e-01
Orbitals + dervs:        4.8800000000e-04      7.8080000000e-01
Inverse:                 0.0000000000e+00      0.0000000000e+00
Determinants:            0.0000000000e+00      0.0000000000e+00
  VMC Eavg = -1.5316949038e+01
  VMC Evar = 8.3128331312e-01
  Total weights = 5.1200000000e+04
  Execution time = 1.6712612625e-01
  </log>
</opt>
<opt stage="main" walkers="51200">
  <log>
Iteration: 1/1
od_largest 8.5848491290e+13
  stabilityBase -1.6000000000e+01
  stabilizerScale 1.0000000000e+00
  Using XS:-1.6000000000e+01 0 0
Before:  ax = 0.0000000000e+00  bx=nan  cx=0.0000000000e+00
After:  ax = 0.0000000000e+00  bx=nan  cx=nan
Minimum found at lambda = nan
  Good Step. Largest LM parameter change:nan
 OldCost: 8.3128331312e-01 NewCost: nan Delta Cost:nan
      Current ene:     nan
      Current var:     nan
      Current ene_urw:     nan
      Current var_urw: nan
ERROR   Using XS:-1.5000000000e+01 0 1
Before:  ax = 0.0000000000e+00  bx=nan  cx=0.0000000000e+00
After:  ax = 0.0000000000e+00  bx=nan  cx=nan
Minimum found at lambda = nan
  Good Step. Largest LM parameter change:nan
 OldCost: 8.3128331312e-01 NewCost: nan Delta Cost:nan
      Current ene:     nan
      Current var:     nan
      Current ene_urw:     nan
      Current var_urw: nan
Revertting to old Parameters
ERROR   Execution time = 1.4279055444e+01
  </log>
  <optVariables href="O.q1.opt.s002.opt.xml">
uu_0 3.9713244580e-02 1 1  ON 0
uu_1 2.3365292873e-03 1 1  ON 1
uu_2 -4.9028763367e-03 1 1  ON 2
uu_3 -1.6617315034e-02 1 1  ON 3
uu_4 -1.8840452142e-02 1 1  ON 4
uu_5 -2.1301614742e-01 1 1  ON 5
uu_6 -3.8142034821e-01 1 1  ON 6
uu_7 -1.7162091081e-01 1 1  ON 7
ud_0 1.3022410972e+00 1 1  ON 8
ud_1 1.0665051389e+00 1 1  ON 9
ud_2 1.1306775082e+00 1 1  ON 10
ud_3 1.0058342177e+00 1 1  ON 11
ud_4 1.2674282924e+00 1 1  ON 12
ud_5 1.3672678777e+00 1 1  ON 13
ud_6 5.3674289881e-01 1 1  ON 14
ud_7 1.0291350650e+01 1 1  ON 15
eO_0 -8.3728987016e-01 1 1  ON 16
eO_1 -8.1907467228e-01 1 1  ON 17
eO_2 -8.0242537842e-01 1 1  ON 18
eO_3 -7.7566839702e-01 1 1  ON 19
eO_4 -7.5783285985e-01 1 1  ON 20
eO_5 -7.4128122964e-01 1 1  ON 21
eO_6 -6.8308998469e-01 1 1  ON 22
eO_7 -6.9412092855e-01 1 1  ON 23
  </optVariables>
   Restore the number of walkers to 16, removing 84 walkers.
</opt>
</optimization-report>
  QMC Execution time = 1.4299901006e+01 secs 
  Reusing QMCFixedSampleLinearOptimize
 Using QMCCostFunctionOMP::QMCCostFunctionOMP

=========================================================
  Start QMCFixedSampleLinearOptimize
  File Root O.q1.opt.s003 append = no 
=========================================================
  Skip QMCDriver::putQMCInfo 
  Resetting Properties of the walkers 1 x 13

=========================================================
  Start VMCSingleOMP
  File Root O.q1.opt.s003 append = no 
=========================================================
Using existing walkers 
  Resetting Properties of the walkers 1 x 13

<vmc function="put">
  qmc_counter=3  my_counter=3
  time step      = 3.0000000000e-01
  blocks         = 200
  steps          = 1
  substeps       = 1
  current        = 0
  target samples = 5.1200000000e+04
  walkers/mpi    = 16

  stepsbetweensamples = 2
<parameter name="blocks" condition="int">200</parameter>
<parameter name="check_properties" condition="int">100</parameter>
<parameter name="checkproperties" condition="int">100</parameter>
<parameter name="current" condition="int">0</parameter>
<parameter name="dmcwalkersperthread" condition="real">1.0000000000e+02</parameter>
<parameter name="maxcpusecs" condition="real">3.6000000000e+05</parameter>
<parameter name="record_configs" condition="int">0</parameter>
<parameter name="record_walkers" condition="int">2</parameter>
<parameter name="recordconfigs" condition="int">0</parameter>
<parameter name="recordwalkers" condition="int">2</parameter>
<parameter name="rewind" condition="int">0</parameter>
<parameter name="samples" condition="real">5.1200000000e+04</parameter>
<parameter name="samplesperthread" condition="real">1.0000000000e+02</parameter>
<parameter name="steps" condition="int">1</parameter>
<parameter name="stepsbetweensamples" condition="int">2</parameter>
<parameter name="store_configs" condition="int">0</parameter>
<parameter name="storeconfigs" condition="int">0</parameter>
<parameter name="sub_steps" condition="int">1</parameter>
<parameter name="substeps" condition="int">1</parameter>
<parameter name="tau" condition="au">3.0000000000e-01</parameter>
<parameter name="time_step" condition="au">3.0000000000e-01</parameter>
<parameter name="timestep" condition="au">3.0000000000e-01</parameter>
<parameter name="use_drift" condition="string">no</parameter>
<parameter name="usedrift" condition="string">no</parameter>
<parameter name="walkers" condition="int">1</parameter>
<parameter name="warmup_steps" condition="int">50</parameter>
<parameter name="warmupsteps" condition="int">50</parameter>
  DumpConfig==false Nothing (configurations, state) will be saved.
  Walker Samples are dumped every 2 steps.
</vmc>
<optimization-report>
<vmc stage="main" blocks="200">
  Cannot make clones again. Use existing 16 clones
  Initial partition of walkers 0 1 2 3 4 5 6 7 8 9 10 11 12 13 14 15 16 
  Total Sample Size   =51200
  Walker distribution on root = 0 1 2 3 4 5 6 7 8 9 10 11 12 13 14 15 16 
====================================================
  SimpleFixedNodeBranch::finalize after a VMC block
    QMC counter        = 3
    time step          = 0.3
    reference energy   = -15.2823
    reference variance = 0.881449
====================================================
  Execution time = 5.6095358000e+00
</vmc>
<opt stage="setup">
  <log>
   Reading configurations from h5FileRoot O.q1.opt.s003
  QMCCostFunctionOMP is created with 16
   Loading configuration from MCWalkerConfiguration::SampleStack 
    number of walkers before load 16
  Using Nonlocal PP in Opt: NonLocalECP
    number of walkers after load: 100 100 100 100 100 100 100 100 100 100 100 100 100 100 100 100 
Using buffers for temporary storage in QMCCostFunction.

Memory usage: 
Linear method (approx matrix usage: 4*N^2): 1.8432000000e-02 MB
Deriv,HDerivRecord:      9.2160000000e-01 MB
Buffer memory cost:     MB/walker       MB/total 
Orbitals only:           1.3600000000e-04      2.1760000000e-01
Orbitals + dervs:        4.8800000000e-04      7.8080000000e-01
Inverse:                 0.0000000000e+00      0.0000000000e+00
Determinants:            0.0000000000e+00      0.0000000000e+00
  VMC Eavg = -1.5329766309e+01
  VMC Evar = 8.3015184732e-01
  Total weights = 5.1200000000e+04
  Execution time = 1.6513644625e-01
  </log>
</opt>
<opt stage="main" walkers="51200">
  <log>
Iteration: 1/1
od_largest 1.2443112642e+15
  stabilityBase -1.6000000000e+01
  stabilizerScale 1.0000000000e+00
  Using XS:-1.6000000000e+01 0 0
ERROR CostFunction-> Number of Effective Walkers is too small 9.4753118998e+01 NumWalkersEff/NumSamples 1.8506468554e-03
ERROR CostFunction-> Number of Effective Walkers is too small 1.6044074241e+00 NumWalkersEff/NumSamples 3.1336082503e-05
ERROR CostFunction-> Number of Effective Walkers is too small 1.3100177519e+00 NumWalkersEff/NumSamples 2.5586284218e-05
ERROR CostFunction-> Number of Effective Walkers is too small 1.8902644935e+00 NumWalkersEff/NumSamples 3.6919228388e-05
ERROR CostFunction-> Number of Effective Walkers is too small 1.6044074241e+00 NumWalkersEff/NumSamples 3.1336082503e-05
  Failed Step. Largest LM parameter change:5.7298809787e+01
ERROR   Using XS:-1.5000000000e+01 1 0
ERROR CostFunction-> Number of Effective Walkers is too small 9.4647474206e+01 NumWalkersEff/NumSamples 1.8485834806e-03
ERROR CostFunction-> Number of Effective Walkers is too small 1.6039673754e+00 NumWalkersEff/NumSamples 3.1327487802e-05
ERROR CostFunction-> Number of Effective Walkers is too small 1.3097323779e+00 NumWalkersEff/NumSamples 2.5580710506e-05
ERROR CostFunction-> Number of Effective Walkers is too small 1.8897066824e+00 NumWalkersEff/NumSamples 3.6908333641e-05
ERROR CostFunction-> Number of Effective Walkers is too small 1.6039673754e+00 NumWalkersEff/NumSamples 3.1327487802e-05
  Failed Step. Largest LM parameter change:5.3137468577e+01
ERROR   Using XS:-1.4000000000e+01 2 0
ERROR CostFunction-> Number of Effective Walkers is too small 9.4706639107e+01 NumWalkersEff/NumSamples 1.8497390451e-03
ERROR CostFunction-> Number of Effective Walkers is too small 1.6040757765e+00 NumWalkersEff/NumSamples 3.1329605010e-05
ERROR CostFunction-> Number of Effective Walkers is too small 1.3097665372e+00 NumWalkersEff/NumSamples 2.5581377680e-05
ERROR CostFunction-> Number of Effective Walkers is too small 1.8898982090e+00 NumWalkersEff/NumSamples 3.6912074395e-05
ERROR CostFunction-> Number of Effective Walkers is too small 1.6040757765e+00 NumWalkersEff/NumSamples 3.1329605010e-05
  Failed Step. Largest LM parameter change:1.0361292818e+02
ERROR   Using XS:-1.3000000000e+01 3 0
ERROR CostFunction-> Number of Effective Walkers is too small 9.4718029453e+01 NumWalkersEff/NumSamples 1.8499615128e-03
ERROR CostFunction-> Number of Effective Walkers is too small 1.6039606989e+00 NumWalkersEff/NumSamples 3.1327357400e-05
ERROR CostFunction-> Number of Effective Walkers is too small 1.3096709769e+00 NumWalkersEff/NumSamples 2.5579511268e-05
ERROR CostFunction-> Number of Effective Walkers is too small 1.8897865476e+00 NumWalkersEff/NumSamples 3.6909893508e-05
ERROR CostFunction-> Number of Effective Walkers is too small 1.6039606989e+00 NumWalkersEff/NumSamples 3.1327357400e-05
  Failed Step. Largest LM parameter change:5.7733124408e+01
ERROR   Using XS:-1.2000000000e+01 4 0
ERROR CostFunction-> Number of Effective Walkers is too small 9.4674251056e+01 NumWalkersEff/NumSamples 1.8491064659e-03
ERROR CostFunction-> Number of Effective Walkers is too small 1.6040561261e+00 NumWalkersEff/NumSamples 3.1329221212e-05
ERROR CostFunction-> Number of Effective Walkers is too small 1.3097886104e+00 NumWalkersEff/NumSamples 2.5581808797e-05
ERROR CostFunction-> Number of Effective Walkers is too small 1.8898217610e+00 NumWalkersEff/NumSamples 3.6910581269e-05
ERROR CostFunction-> Number of Effective Walkers is too small 1.6040561261e+00 NumWalkersEff/NumSamples 3.1329221212e-05
  Failed Step. Largest LM parameter change:5.0719774088e+01
ERROR   Using XS:-1.1000000000e+01 5 0
ERROR CostFunction-> Number of Effective Walkers is too small 9.4811434649e+01 NumWalkersEff/NumSamples 1.8517858330e-03
ERROR CostFunction-> Number of Effective Walkers is too small 1.6045478948e+00 NumWalkersEff/NumSamples 3.1338826070e-05
ERROR CostFunction-> Number of Effective Walkers is too small 1.3100753904e+00 NumWalkersEff/NumSamples 2.5587409968e-05
ERROR CostFunction-> Number of Effective Walkers is too small 1.8904926042e+00 NumWalkersEff/NumSamples 3.6923683676e-05
ERROR CostFunction-> Number of Effective Walkers is too small 1.6045478948e+00 NumWalkersEff/NumSamples 3.1338826070e-05
  Failed Step. Largest LM parameter change:8.5983437057e+01
ERROR   Using XS:-1.0000000000e+01 6 0
ERROR CostFunction-> Number of Effective Walkers is too small 9.4647679866e+01 NumWalkersEff/NumSamples 1.8485874974e-03
ERROR CostFunction-> Number of Effective Walkers is too small 1.6037767954e+00 NumWalkersEff/NumSamples 3.1323765534e-05
ERROR CostFunction-> Number of Effective Walkers is too small 1.3095513125e+00 NumWalkersEff/NumSamples 2.5577174073e-05
ERROR CostFunction-> Number of Effective Walkers is too small 1.8895514680e+00 NumWalkersEff/NumSamples 3.6905302109e-05
ERROR CostFunction-> Number of Effective Walkers is too small 1.6037767954e+00 NumWalkersEff/NumSamples 3.1323765534e-05
  Failed Step. Largest LM parameter change:8.0603789171e+01
ERROR   Using XS:-9.0000000000e+00 7 0
ERROR CostFunction-> Number of Effective Walkers is too small 9.4549333896e+01 NumWalkersEff/NumSamples 1.8466666777e-03
ERROR CostFunction-> Number of Effective Walkers is too small 1.6034646909e+00 NumWalkersEff/NumSamples 3.1317669743e-05
ERROR CostFunction-> Number of Effective Walkers is too small 1.3093834189e+00 NumWalkersEff/NumSamples 2.5573894900e-05
ERROR CostFunction-> Number of Effective Walkers is too small 1.8891066944e+00 NumWalkersEff/NumSamples 3.6896615125e-05
ERROR CostFunction-> Number of Effective Walkers is too small 1.6034646909e+00 NumWalkersEff/NumSamples 3.1317669743e-05
  Failed Step. Largest LM parameter change:5.3700408680e+01
ERROR   Using XS:-8.0000000000e+00 8 0
ERROR CostFunction-> Number of Effective Walkers is too small 9.4681778291e+01 NumWalkersEff/NumSamples 1.8492534823e-03
ERROR CostFunction-> Number of Effective Walkers is too small 1.6046413569e+00 NumWalkersEff/NumSamples 3.1340651502e-05
ERROR CostFunction-> Number of Effective Walkers is too small 1.3102246141e+00 NumWalkersEff/NumSamples 2.5590324494e-05
ERROR CostFunction-> Number of Effective Walkers is too small 1.8904705005e+00 NumWalkersEff/NumSamples 3.6923251963e-05
ERROR CostFunction-> Number of Effective Walkers is too small 1.6046413569e+00 NumWalkersEff/NumSamples 3.1340651502e-05
  Failed Step. Largest LM parameter change:5.6948532988e+01
ERROR   Using XS:-7.0000000000e+00 9 0
ERROR CostFunction-> Number of Effective Walkers is too small 9.4636233867e+01 NumWalkersEff/NumSamples 1.8483639427e-03
ERROR CostFunction-> Number of Effective Walkers is too small 1.6042828732e+00 NumWalkersEff/NumSamples 3.1333649868e-05
ERROR CostFunction-> Number of Effective Walkers is too small 1.3099608328e+00 NumWalkersEff/NumSamples 2.5585172515e-05
ERROR CostFunction-> Number of Effective Walkers is too small 1.8900655711e+00 NumWalkersEff/NumSamples 3.6915343186e-05
ERROR CostFunction-> Number of Effective Walkers is too small 1.6042828732e+00 NumWalkersEff/NumSamples 3.1333649868e-05
  Failed Step. Largest LM parameter change:8.0937993017e+01
ERROR   Using XS:-6.0000000000e+00 10 0
ERROR CostFunction-> Number of Effective Walkers is too small 9.5124835047e+01 NumWalkersEff/NumSamples 1.8579069345e-03
ERROR CostFunction-> Number of Effective Walkers is too small 1.6064761439e+00 NumWalkersEff/NumSamples 3.1376487185e-05
ERROR CostFunction-> Number of Effective Walkers is too small 1.3115550465e+00 NumWalkersEff/NumSamples 2.5616309502e-05
ERROR CostFunction-> Number of Effective Walkers is too small 1.8926663402e+00 NumWalkersEff/NumSamples 3.6966139456e-05
ERROR CostFunction-> Number of Effective Walkers is too small 1.6064761439e+00 NumWalkersEff/NumSamples 3.1376487185e-05
  Failed Step. Largest LM parameter change:9.6178138715e+01
ERROR   Using XS:-5.0000000000e+00 11 0
ERROR CostFunction-> Number of Effective Walkers is too small 9.5635192257e+01 NumWalkersEff/NumSamples 1.8678748488e-03
ERROR CostFunction-> Number of Effective Walkers is too small 1.6041729580e+00 NumWalkersEff/NumSamples 3.1331503086e-05
ERROR CostFunction-> Number of Effective Walkers is too small 1.3118534791e+00 NumWalkersEff/NumSamples 2.5622138264e-05
ERROR CostFunction-> Number of Effective Walkers is too small 1.8872393826e+00 NumWalkersEff/NumSamples 3.6860144192e-05
ERROR CostFunction-> Number of Effective Walkers is too small 1.6041729580e+00 NumWalkersEff/NumSamples 3.1331503086e-05
  Failed Step. Largest LM parameter change:5.3181544775e+01
ERROR   Using XS:-4.0000000000e+00 12 0
ERROR CostFunction-> Number of Effective Walkers is too small 5.8947801142e+01 NumWalkersEff/NumSamples 1.1513242410e-03
ERROR CostFunction-> Number of Effective Walkers is too small 1.4955688526e+00 NumWalkersEff/NumSamples 2.9210329153e-05
ERROR CostFunction-> Number of Effective Walkers is too small 1.2429511612e+00 NumWalkersEff/NumSamples 2.4276389867e-05
ERROR CostFunction-> Number of Effective Walkers is too small 1.7474982024e+00 NumWalkersEff/NumSamples 3.4130824266e-05
ERROR CostFunction-> Number of Effective Walkers is too small 1.4955688526e+00 NumWalkersEff/NumSamples 2.9210329153e-05
  Failed Step. Largest LM parameter change:4.8706538946e+01
ERROR   Using XS:-3.0000000000e+00 13 0
ERROR CostFunction-> Number of Effective Walkers is too small 6.1740663842e+01 NumWalkersEff/NumSamples 1.2058723407e-03
ERROR CostFunction-> Number of Effective Walkers is too small 1.5669409221e+00 NumWalkersEff/NumSamples 3.0604314885e-05
ERROR CostFunction-> Number of Effective Walkers is too small 1.3018318289e+00 NumWalkersEff/NumSamples 2.5426402907e-05
ERROR CostFunction-> Number of Effective Walkers is too small 1.8172641487e+00 NumWalkersEff/NumSamples 3.5493440404e-05
ERROR CostFunction-> Number of Effective Walkers is too small 1.5669409221e+00 NumWalkersEff/NumSamples 3.0604314885e-05
  Failed Step. Largest LM parameter change:5.0848440743e+01
ERROR   Using XS:-2.0000000000e+00 14 0
ERROR CostFunction-> Number of Effective Walkers is too small 7.9580065247e+01 NumWalkersEff/NumSamples 1.5542981493e-03
ERROR CostFunction-> Number of Effective Walkers is too small 1.4781701722e+00 NumWalkersEff/NumSamples 2.8870511176e-05
ERROR CostFunction-> Number of Effective Walkers is too small 1.2357887075e+00 NumWalkersEff/NumSamples 2.4136498193e-05
ERROR CostFunction-> Number of Effective Walkers is too small 1.7202020303e+00 NumWalkersEff/NumSamples 3.3597695903e-05
ERROR CostFunction-> Number of Effective Walkers is too small 1.4781701722e+00 NumWalkersEff/NumSamples 2.8870511176e-05
  Failed Step. Largest LM parameter change:5.4041097065e+01
ERROR   Using XS:-1.0000000000e+00 15 0
ERROR CostFunction-> Number of Effective Walkers is too small 5.8893505038e+01 NumWalkersEff/NumSamples 1.1502637703e-03
ERROR CostFunction-> Number of Effective Walkers is too small 1.5397556551e+00 NumWalkersEff/NumSamples 3.0073352638e-05
ERROR CostFunction-> Number of Effective Walkers is too small 1.2835463937e+00 NumWalkersEff/NumSamples 2.5069265502e-05
ERROR CostFunction-> Number of Effective Walkers is too small 1.7835135638e+00 NumWalkersEff/NumSamples 3.4834249293e-05
ERROR CostFunction-> Number of Effective Walkers is too small 1.5397556551e+00 NumWalkersEff/NumSamples 3.0073352638e-05
  Failed Step. Largest LM parameter change:5.8528971159e+01
ERROR   Using XS:0.0000000000e+00 16 0
ERROR CostFunction-> Number of Effective Walkers is too small 7.2896880408e+01 NumWalkersEff/NumSamples 1.4237671955e-03
ERROR CostFunction-> Number of Effective Walkers is too small 1.6146004673e+00 NumWalkersEff/NumSamples 3.1535165377e-05
ERROR CostFunction-> Number of Effective Walkers is too small 1.3582755243e+00 NumWalkersEff/NumSamples 2.6528818833e-05
ERROR CostFunction-> Number of Effective Walkers is too small 1.8423634015e+00 NumWalkersEff/NumSamples 3.5983660186e-05
ERROR CostFunction-> Number of Effective Walkers is too small 1.6146004673e+00 NumWalkersEff/NumSamples 3.1535165377e-05
  Failed Step. Largest LM parameter change:5.4594328875e+01
ERROR   Using XS:1.0000000000e+00 17 0
ERROR CostFunction-> Number of Effective Walkers is too small 1.2789872640e+02 NumWalkersEff/NumSamples 2.4980220000e-03
ERROR CostFunction-> Number of Effective Walkers is too small 1.6896174984e+00 NumWalkersEff/NumSamples 3.3000341765e-05
ERROR CostFunction-> Number of Effective Walkers is too small 1.4067497029e+00 NumWalkersEff/NumSamples 2.7475580136e-05
ERROR CostFunction-> Number of Effective Walkers is too small 1.9448411872e+00 NumWalkersEff/NumSamples 3.7985179437e-05
ERROR CostFunction-> Number of Effective Walkers is too small 1.6896174984e+00 NumWalkersEff/NumSamples 3.3000341765e-05
  Failed Step. Largest LM parameter change:8.7142674920e+01
ERROR   Using XS:2.0000000000e+00 18 0
ERROR CostFunction-> Number of Effective Walkers is too small 8.0642711911e+01 NumWalkersEff/NumSamples 1.5750529670e-03
ERROR CostFunction-> Number of Effective Walkers is too small 1.6879764321e+00 NumWalkersEff/NumSamples 3.2968289689e-05
ERROR CostFunction-> Number of Effective Walkers is too small 1.3846288695e+00 NumWalkersEff/NumSamples 2.7043532608e-05
ERROR CostFunction-> Number of Effective Walkers is too small 1.9651981016e+00 NumWalkersEff/NumSamples 3.8382775421e-05
ERROR CostFunction-> Number of Effective Walkers is too small 1.6879764321e+00 NumWalkersEff/NumSamples 3.2968289689e-05
  Failed Step. Largest LM parameter change:6.7897794356e+01
ERROR   Using XS:3.0000000000e+00 19 0
Before:  ax = 0.0000000000e+00  bx=nan  cx=0.0000000000e+00
After:  ax = 0.0000000000e+00  bx=nan  cx=nan
Minimum found at lambda = nan
  Good Step. Largest LM parameter change:nan
 OldCost: 8.3015184732e-01 NewCost: nan Delta Cost:nan
      Current ene:     nan
      Current var:     nan
      Current ene_urw:     nan
      Current var_urw: nan
ERROR   Using XS:4.0000000000e+00 19 1
Before:  ax = 0.0000000000e+00  bx=nan  cx=0.0000000000e+00
After:  ax = 0.0000000000e+00  bx=nan  cx=nan
Minimum found at lambda = nan
  Good Step. Largest LM parameter change:nan
 OldCost: 8.3015184732e-01 NewCost: nan Delta Cost:nan
      Current ene:     nan
      Current var:     nan
      Current ene_urw:     nan
      Current var_urw: nan
Revertting to old Parameters
ERROR   Execution time = 1.8936496873e+01
  </log>
  <optVariables href="O.q1.opt.s003.opt.xml">
uu_0 3.9713244580e-02 1 1  ON 0
uu_1 2.3365292873e-03 1 1  ON 1
uu_2 -4.9028763367e-03 1 1  ON 2
uu_3 -1.6617315034e-02 1 1  ON 3
uu_4 -1.8840452142e-02 1 1  ON 4
uu_5 -2.1301614742e-01 1 1  ON 5
uu_6 -3.8142034821e-01 1 1  ON 6
uu_7 -1.7162091081e-01 1 1  ON 7
ud_0 1.3022410972e+00 1 1  ON 8
ud_1 1.0665051389e+00 1 1  ON 9
ud_2 1.1306775082e+00 1 1  ON 10
ud_3 1.0058342177e+00 1 1  ON 11
ud_4 1.2674282924e+00 1 1  ON 12
ud_5 1.3672678777e+00 1 1  ON 13
ud_6 5.3674289881e-01 1 1  ON 14
ud_7 1.0291350650e+01 1 1  ON 15
eO_0 -8.3728987016e-01 1 1  ON 16
eO_1 -8.1907467228e-01 1 1  ON 17
eO_2 -8.0242537842e-01 1 1  ON 18
eO_3 -7.7566839702e-01 1 1  ON 19
eO_4 -7.5783285985e-01 1 1  ON 20
eO_5 -7.4128122964e-01 1 1  ON 21
eO_6 -6.8308998469e-01 1 1  ON 22
eO_7 -6.9412092855e-01 1 1  ON 23
  </optVariables>
   Restore the number of walkers to 16, removing 84 walkers.
</opt>
</optimization-report>
  QMC Execution time = 1.8961635263e+01 secs 
  Reusing QMCFixedSampleLinearOptimize
 Using QMCCostFunctionOMP::QMCCostFunctionOMP

=========================================================
  Start QMCFixedSampleLinearOptimize
  File Root O.q1.opt.s004 append = no 
=========================================================
  Skip QMCDriver::putQMCInfo 
  Resetting Properties of the walkers 1 x 13

=========================================================
  Start VMCSingleOMP
  File Root O.q1.opt.s004 append = no 
=========================================================
Using existing walkers 
  Resetting Properties of the walkers 1 x 13

<vmc function="put">
  qmc_counter=4  my_counter=4
  time step      = 3.0000000000e-01
  blocks         = 200
  steps          = 1
  substeps       = 1
  current        = 0
  target samples = 5.1200000000e+04
  walkers/mpi    = 16

  stepsbetweensamples = 2
<parameter name="blocks" condition="int">200</parameter>
<parameter name="check_properties" condition="int">100</parameter>
<parameter name="checkproperties" condition="int">100</parameter>
<parameter name="current" condition="int">0</parameter>
<parameter name="dmcwalkersperthread" condition="real">1.0000000000e+02</parameter>
<parameter name="maxcpusecs" condition="real">3.6000000000e+05</parameter>
<parameter name="record_configs" condition="int">0</parameter>
<parameter name="record_walkers" condition="int">2</parameter>
<parameter name="recordconfigs" condition="int">0</parameter>
<parameter name="recordwalkers" condition="int">2</parameter>
<parameter name="rewind" condition="int">0</parameter>
<parameter name="samples" condition="real">5.1200000000e+04</parameter>
<parameter name="samplesperthread" condition="real">1.0000000000e+02</parameter>
<parameter name="steps" condition="int">1</parameter>
<parameter name="stepsbetweensamples" condition="int">2</parameter>
<parameter name="store_configs" condition="int">0</parameter>
<parameter name="storeconfigs" condition="int">0</parameter>
<parameter name="sub_steps" condition="int">1</parameter>
<parameter name="substeps" condition="int">1</parameter>
<parameter name="tau" condition="au">3.0000000000e-01</parameter>
<parameter name="time_step" condition="au">3.0000000000e-01</parameter>
<parameter name="timestep" condition="au">3.0000000000e-01</parameter>
<parameter name="use_drift" condition="string">no</parameter>
<parameter name="usedrift" condition="string">no</parameter>
<parameter name="walkers" condition="int">1</parameter>
<parameter name="warmup_steps" condition="int">50</parameter>
<parameter name="warmupsteps" condition="int">50</parameter>
  DumpConfig==false Nothing (configurations, state) will be saved.
  Walker Samples are dumped every 2 steps.
</vmc>
<optimization-report>
<vmc stage="main" blocks="200">
  Cannot make clones again. Use existing 16 clones
  Initial partition of walkers 0 1 2 3 4 5 6 7 8 9 10 11 12 13 14 15 16 
  Total Sample Size   =51200
  Walker distribution on root = 0 1 2 3 4 5 6 7 8 9 10 11 12 13 14 15 16 
====================================================
  SimpleFixedNodeBranch::finalize after a VMC block
    QMC counter        = 4
    time step          = 0.3
    reference energy   = -15.3525
    reference variance = 0.960671
====================================================
  Execution time = 5.4939416388e+00
</vmc>
<opt stage="setup">
  <log>
   Reading configurations from h5FileRoot O.q1.opt.s004
  QMCCostFunctionOMP is created with 16
   Loading configuration from MCWalkerConfiguration::SampleStack 
    number of walkers before load 16
  Using Nonlocal PP in Opt: NonLocalECP
    number of walkers after load: 100 100 100 100 100 100 100 100 100 100 100 100 100 100 100 100 
Using buffers for temporary storage in QMCCostFunction.

Memory usage: 
Linear method (approx matrix usage: 4*N^2): 1.8432000000e-02 MB
Deriv,HDerivRecord:      9.2160000000e-01 MB
Buffer memory cost:     MB/walker       MB/total 
Orbitals only:           1.3600000000e-04      2.1760000000e-01
Orbitals + dervs:        4.8800000000e-04      7.8080000000e-01
Inverse:                 0.0000000000e+00      0.0000000000e+00
Determinants:            0.0000000000e+00      0.0000000000e+00
  VMC Eavg = -1.5333295123e+01
  VMC Evar = 8.6681980878e-01
  Total weights = 5.1200000000e+04
  Execution time = 1.6426826875e-01
  </log>
</opt>
<opt stage="main" walkers="51200">
  <log>
Iteration: 1/1
od_largest 2.7114099256e+06
  stabilityBase -1.6000000000e+01
  stabilizerScale 1.0000000000e+00
  Using XS:-1.6000000000e+01 0 0
  Good Step. Largest LM parameter change:5.5541317303e+00
 OldCost: 8.6681980878e-01 NewCost: 7.5566037047e-01 Delta Cost:-1.1115943830e-01
      Current ene:     -1.5362100253e+01
      Current var:     7.3364660136e-01
      Current ene_urw:     -1.5350007780e+01
      Current var_urw: 7.5566037047e-01
Setting new Parameters
ERROR   Execution time = 6.0638601075e+00
  </log>
  <optVariables href="O.q1.opt.s004.opt.xml">
uu_0 -4.7470245981e+00 1 1  ON 0
uu_1 -4.8565036413e+00 1 1  ON 1
uu_2 -4.8853617881e+00 1 1  ON 2
uu_3 -4.9055614970e+00 1 1  ON 3
uu_4 -4.9130534761e+00 1 1  ON 4
uu_5 -5.0877250897e+00 1 1  ON 5
uu_6 -4.9610798344e+00 1 1  ON 6
uu_7 -5.7257526411e+00 1 1  ON 7
ud_0 2.2870971392e+00 1 1  ON 8
ud_1 1.9215261578e+00 1 1  ON 9
ud_2 1.9630930377e+00 1 1  ON 10
ud_3 1.9528483816e+00 1 1  ON 11
ud_4 2.1314714757e+00 1 1  ON 12
ud_5 2.4998940837e+00 1 1  ON 13
ud_6 2.2461312846e+00 1 1  ON 14
ud_7 4.8585691336e+00 1 1  ON 15
eO_0 -1.0049988582e+00 1 1  ON 16
eO_1 -9.5148047688e-01 1 1  ON 17
eO_2 -8.8788147978e-01 1 1  ON 18
eO_3 -8.1575534192e-01 1 1  ON 19
eO_4 -7.6276626564e-01 1 1  ON 20
eO_5 -7.2326631269e-01 1 1  ON 21
eO_6 -6.6462469498e-01 1 1  ON 22
eO_7 -6.2113918045e-01 1 1  ON 23
  </optVariables>
   Restore the number of walkers to 16, removing 84 walkers.
</opt>
</optimization-report>
  QMC Execution time = 6.0846947150e+00 secs 
  Reusing QMCFixedSampleLinearOptimize
 Using QMCCostFunctionOMP::QMCCostFunctionOMP

=========================================================
  Start QMCFixedSampleLinearOptimize
  File Root O.q1.opt.s005 append = no 
=========================================================
  Skip QMCDriver::putQMCInfo 
  Resetting Properties of the walkers 1 x 13

=========================================================
  Start VMCSingleOMP
  File Root O.q1.opt.s005 append = no 
=========================================================
Using existing walkers 
  Resetting Properties of the walkers 1 x 13

<vmc function="put">
  qmc_counter=5  my_counter=5
  time step      = 3.0000000000e-01
  blocks         = 200
  steps          = 1
  substeps       = 1
  current        = 0
  target samples = 5.1200000000e+04
  walkers/mpi    = 16

  stepsbetweensamples = 2
<parameter name="blocks" condition="int">200</parameter>
<parameter name="check_properties" condition="int">100</parameter>
<parameter name="checkproperties" condition="int">100</parameter>
<parameter name="current" condition="int">0</parameter>
<parameter name="dmcwalkersperthread" condition="real">1.0000000000e+02</parameter>
<parameter name="maxcpusecs" condition="real">3.6000000000e+05</parameter>
<parameter name="record_configs" condition="int">0</parameter>
<parameter name="record_walkers" condition="int">2</parameter>
<parameter name="recordconfigs" condition="int">0</parameter>
<parameter name="recordwalkers" condition="int">2</parameter>
<parameter name="rewind" condition="int">0</parameter>
<parameter name="samples" condition="real">5.1200000000e+04</parameter>
<parameter name="samplesperthread" condition="real">1.0000000000e+02</parameter>
<parameter name="steps" condition="int">1</parameter>
<parameter name="stepsbetweensamples" condition="int">2</parameter>
<parameter name="store_configs" condition="int">0</parameter>
<parameter name="storeconfigs" condition="int">0</parameter>
<parameter name="sub_steps" condition="int">1</parameter>
<parameter name="substeps" condition="int">1</parameter>
<parameter name="tau" condition="au">3.0000000000e-01</parameter>
<parameter name="time_step" condition="au">3.0000000000e-01</parameter>
<parameter name="timestep" condition="au">3.0000000000e-01</parameter>
<parameter name="use_drift" condition="string">no</parameter>
<parameter name="usedrift" condition="string">no</parameter>
<parameter name="walkers" condition="int">1</parameter>
<parameter name="warmup_steps" condition="int">50</parameter>
<parameter name="warmupsteps" condition="int">50</parameter>
  DumpConfig==false Nothing (configurations, state) will be saved.
  Walker Samples are dumped every 2 steps.
</vmc>
<optimization-report>
<vmc stage="main" blocks="200">
  Cannot make clones again. Use existing 16 clones
  Initial partition of walkers 0 1 2 3 4 5 6 7 8 9 10 11 12 13 14 15 16 
  Total Sample Size   =51200
  Walker distribution on root = 0 1 2 3 4 5 6 7 8 9 10 11 12 13 14 15 16 
====================================================
  SimpleFixedNodeBranch::finalize after a VMC block
    QMC counter        = 5
    time step          = 0.3
    reference energy   = -15.3119
    reference variance = 0.761743
====================================================
  Execution time = 5.5041599488e+00
</vmc>
<opt stage="setup">
  <log>
   Reading configurations from h5FileRoot O.q1.opt.s005
  QMCCostFunctionOMP is created with 16
   Loading configuration from MCWalkerConfiguration::SampleStack 
    number of walkers before load 16
  Using Nonlocal PP in Opt: NonLocalECP
    number of walkers after load: 100 100 100 100 100 100 100 100 100 100 100 100 100 100 100 100 
Using buffers for temporary storage in QMCCostFunction.

Memory usage: 
Linear method (approx matrix usage: 4*N^2): 1.8432000000e-02 MB
Deriv,HDerivRecord:      9.2160000000e-01 MB
Buffer memory cost:     MB/walker       MB/total 
Orbitals only:           1.3600000000e-04      2.1760000000e-01
Orbitals + dervs:        4.8800000000e-04      7.8080000000e-01
Inverse:                 0.0000000000e+00      0.0000000000e+00
Determinants:            0.0000000000e+00      0.0000000000e+00
  VMC Eavg = -1.5358258417e+01
  VMC Evar = 7.1535685960e-01
  Total weights = 5.1200000000e+04
  Execution time = 1.6767083625e-01
  </log>
</opt>
<opt stage="main" walkers="51200">
  <log>
Iteration: 1/1
od_largest 3.0412190572e+17
  stabilityBase -1.6000000000e+01
  stabilizerScale 1.0000000000e+00
  Using XS:-1.6000000000e+01 0 0
ERROR CostFunction-> Number of Effective Walkers is too small 2.9482152048e+03 NumWalkersEff/NumSamples 5.7582328219e-02
ERROR CostFunction-> Number of Effective Walkers is too small 9.2958516082e+01 NumWalkersEff/NumSamples 1.8155960172e-03
ERROR CostFunction-> Number of Effective Walkers is too small 8.6694887634e+00 NumWalkersEff/NumSamples 1.6932595241e-04
ERROR CostFunction-> Number of Effective Walkers is too small 6.5656798895e+02 NumWalkersEff/NumSamples 1.2823593534e-02
ERROR CostFunction-> Number of Effective Walkers is too small 9.2958516082e+01 NumWalkersEff/NumSamples 1.8155960172e-03
  Failed Step. Largest LM parameter change:3.5342614394e+04
ERROR   Using XS:-1.5000000000e+01 1 0
ERROR CostFunction-> Number of Effective Walkers is too small 2.7598563345e+03 NumWalkersEff/NumSamples 5.3903444034e-02
ERROR CostFunction-> Number of Effective Walkers is too small 9.4687998177e+01 NumWalkersEff/NumSamples 1.8493749644e-03
ERROR CostFunction-> Number of Effective Walkers is too small 8.7441611185e+00 NumWalkersEff/NumSamples 1.7078439685e-04
ERROR CostFunction-> Number of Effective Walkers is too small 6.6783571961e+02 NumWalkersEff/NumSamples 1.3043666399e-02
ERROR CostFunction-> Number of Effective Walkers is too small 9.4687998177e+01 NumWalkersEff/NumSamples 1.8493749644e-03
[...]
<parameter name="record_configs" condition="int">0</parameter>
<parameter name="record_walkers" condition="int">2</parameter>
<parameter name="recordconfigs" condition="int">0</parameter>
<parameter name="recordwalkers" condition="int">2</parameter>
<parameter name="rewind" condition="int">0</parameter>
<parameter name="samples" condition="real">5.1200000000e+04</parameter>
<parameter name="samplesperthread" condition="real">1.0000000000e+02</parameter>
<parameter name="steps" condition="int">1</parameter>
<parameter name="stepsbetweensamples" condition="int">2</parameter>
<parameter name="store_configs" condition="int">0</parameter>
<parameter name="storeconfigs" condition="int">0</parameter>
<parameter name="sub_steps" condition="int">1</parameter>
<parameter name="substeps" condition="int">1</parameter>
<parameter name="tau" condition="au">3.0000000000e-01</parameter>
<parameter name="time_step" condition="au">3.0000000000e-01</parameter>
<parameter name="timestep" condition="au">3.0000000000e-01</parameter>
<parameter name="use_drift" condition="string">no</parameter>
<parameter name="usedrift" condition="string">no</parameter>
<parameter name="walkers" condition="int">1</parameter>
<parameter name="warmup_steps" condition="int">50</parameter>
<parameter name="warmupsteps" condition="int">50</parameter>
  DumpConfig==false Nothing (configurations, state) will be saved.
  Walker Samples are dumped every 2 steps.
</vmc>
<optimization-report>
<vmc stage="main" blocks="200">
  Cannot make clones again. Use existing 16 clones
  Initial partition of walkers 0 1 2 3 4 5 6 7 8 9 10 11 12 13 14 15 16 
  Total Sample Size   =51200
  Walker distribution on root = 0 1 2 3 4 5 6 7 8 9 10 11 12 13 14 15 16 
====================================================
  SimpleFixedNodeBranch::finalize after a VMC block
    QMC counter        = 11
    time step          = 0.3
    reference energy   = -15.3938
    reference variance = 0.792008
====================================================
  Execution time = 5.5187895875e+00
</vmc>
<opt stage="setup">
  <log>
   Reading configurations from h5FileRoot O.q1.opt.s011
  QMCCostFunctionOMP is created with 16
   Loading configuration from MCWalkerConfiguration::SampleStack 
    number of walkers before load 16
  Using Nonlocal PP in Opt: NonLocalECP
    number of walkers after load: 100 100 100 100 100 100 100 100 100 100 100 100 100 100 100 100 
Using buffers for temporary storage in QMCCostFunction.

Memory usage: 
Linear method (approx matrix usage: 4*N^2): 1.8432000000e-02 MB
Deriv,HDerivRecord:      9.2160000000e-01 MB
Buffer memory cost:     MB/walker       MB/total 
Orbitals only:           1.3600000000e-04      2.1760000000e-01
Orbitals + dervs:        4.8800000000e-04      7.8080000000e-01
Inverse:                 0.0000000000e+00      0.0000000000e+00
Determinants:            0.0000000000e+00      0.0000000000e+00
  VMC Eavg = -1.5355006692e+01
  VMC Evar = 6.2662672561e-01
  Total weights = 5.1200000000e+04
  Execution time = 1.6493519875e-01
  </log>
</opt>
<opt stage="main" walkers="51200">
  <log>
Iteration: 1/1
od_largest 2.7879336875e+15
  stabilityBase -1.6000000000e+01
  stabilizerScale 1.0000000000e+00
  Using XS:-1.6000000000e+01 0 0
ERROR CostFunction-> Number of Effective Walkers is too small 2.4913885834e+04 NumWalkersEff/NumSamples 4.8659933270e-01
ERROR CostFunction-> Number of Effective Walkers is too small 1.1762670083e+01 NumWalkersEff/NumSamples 2.2973965005e-04
ERROR CostFunction-> Number of Effective Walkers is too small 1.0263807448e+00 NumWalkersEff/NumSamples 2.0046498923e-05
ERROR CostFunction-> Number of Effective Walkers is too small 1.0026418189e+00 NumWalkersEff/NumSamples 1.9582848025e-05
ERROR CostFunction-> Number of Effective Walkers is too small 1.0865388328e+00 NumWalkersEff/NumSamples 2.1221461578e-05
ERROR CostFunction-> Number of Effective Walkers is too small 1.0263807448e+00 NumWalkersEff/NumSamples 2.0046498923e-05
  Failed Step. Largest LM parameter change:1.7049963204e+03
ERROR   Using XS:-1.5000000000e+01 1 0
ERROR CostFunction-> Number of Effective Walkers is too small 2.4912603341e+04 NumWalkersEff/NumSamples 4.8657428400e-01
ERROR CostFunction-> Number of Effective Walkers is too small 1.1764998354e+01 NumWalkersEff/NumSamples 2.2978512410e-04
ERROR CostFunction-> Number of Effective Walkers is too small 1.0263853188e+00 NumWalkersEff/NumSamples 2.0046588257e-05
ERROR CostFunction-> Number of Effective Walkers is too small 1.0026424296e+00 NumWalkersEff/NumSamples 1.9582859953e-05
ERROR CostFunction-> Number of Effective Walkers is too small 1.0865513808e+00 NumWalkersEff/NumSamples 2.1221706657e-05
ERROR CostFunction-> Number of Effective Walkers is too small 1.0263853188e+00 NumWalkersEff/NumSamples 2.0046588257e-05
  Failed Step. Largest LM parameter change:1.5935394205e+03
ERROR   Using XS:-1.4000000000e+01 2 0
ERROR CostFunction-> Number of Effective Walkers is too small 2.4920521676e+04 NumWalkersEff/NumSamples 4.8672893899e-01
ERROR CostFunction-> Number of Effective Walkers is too small 1.1772080806e+01 NumWalkersEff/NumSamples 2.2992345325e-04
ERROR CostFunction-> Number of Effective Walkers is too small 1.0264054552e+00 NumWalkersEff/NumSamples 2.0046981547e-05
ERROR CostFunction-> Number of Effective Walkers is too small 1.0026452546e+00 NumWalkersEff/NumSamples 1.9582915130e-05
ERROR CostFunction-> Number of Effective Walkers is too small 1.0866049730e+00 NumWalkersEff/NumSamples 2.1222753378e-05
ERROR CostFunction-> Number of Effective Walkers is too small 1.0264054552e+00 NumWalkersEff/NumSamples 2.0046981547e-05
  Failed Step. Largest LM parameter change:1.5364645435e+03
ERROR   Using XS:-1.3000000000e+01 3 0
ERROR CostFunction-> Number of Effective Walkers is too small 2.4920493003e+04 NumWalkersEff/NumSamples 4.8672837897e-01
ERROR CostFunction-> Number of Effective Walkers is too small 1.1806787084e+01 NumWalkersEff/NumSamples 2.3060131024e-04
ERROR CostFunction-> Number of Effective Walkers is too small 1.0264631552e+00 NumWalkersEff/NumSamples 2.0048108501e-05
ERROR CostFunction-> Number of Effective Walkers is too small 1.0026529245e+00 NumWalkersEff/NumSamples 1.9583064932e-05
ERROR CostFunction-> Number of Effective Walkers is too small 1.0867638848e+00 NumWalkersEff/NumSamples 2.1225857125e-05
ERROR CostFunction-> Number of Effective Walkers is too small 1.0264631552e+00 NumWalkersEff/NumSamples 2.0048108501e-05
  Failed Step. Largest LM parameter change:9.8063427268e+02
ERROR   Using XS:-1.2000000000e+01 4 0
ERROR CostFunction-> Number of Effective Walkers is too small 2.4923402709e+04 NumWalkersEff/NumSamples 4.8678520917e-01
ERROR CostFunction-> Number of Effective Walkers is too small 1.1779725402e+01 NumWalkersEff/NumSamples 2.3007276176e-04
ERROR CostFunction-> Number of Effective Walkers is too small 1.0264023657e+00 NumWalkersEff/NumSamples 2.0046921205e-05
ERROR CostFunction-> Number of Effective Walkers is too small 1.0026446590e+00 NumWalkersEff/NumSamples 1.9582903496e-05
ERROR CostFunction-> Number of Effective Walkers is too small 1.0865989153e+00 NumWalkersEff/NumSamples 2.1222635064e-05
ERROR CostFunction-> Number of Effective Walkers is too small 1.0264023657e+00 NumWalkersEff/NumSamples 2.0046921205e-05
  Failed Step. Largest LM parameter change:1.6668852366e+03
ERROR   Using XS:-1.1000000000e+01 5 0
ERROR CostFunction-> Number of Effective Walkers is too small 2.4921129452e+04 NumWalkersEff/NumSamples 4.8674080961e-01
ERROR CostFunction-> Number of Effective Walkers is too small 1.1763145494e+01 NumWalkersEff/NumSamples 2.2974893543e-04
ERROR CostFunction-> Number of Effective Walkers is too small 1.0263871879e+00 NumWalkersEff/NumSamples 2.0046624763e-05
ERROR CostFunction-> Number of Effective Walkers is too small 1.0026428141e+00 NumWalkersEff/NumSamples 1.9582867464e-05
ERROR CostFunction-> Number of Effective Walkers is too small 1.0865548006e+00 NumWalkersEff/NumSamples 2.1221773449e-05
ERROR CostFunction-> Number of Effective Walkers is too small 1.0263871879e+00 NumWalkersEff/NumSamples 2.0046624763e-05
  Failed Step. Largest LM parameter change:2.0555380549e+03
ERROR   Using XS:-1.0000000000e+01 6 0
ERROR CostFunction-> Number of Effective Walkers is too small 2.4922937287e+04 NumWalkersEff/NumSamples 4.8677611888e-01
ERROR CostFunction-> Number of Effective Walkers is too small 1.1826616097e+01 NumWalkersEff/NumSamples 2.3098859564e-04
ERROR CostFunction-> Number of Effective Walkers is too small 1.0265302008e+00 NumWalkersEff/NumSamples 2.0049417984e-05
ERROR CostFunction-> Number of Effective Walkers is too small 1.0026622317e+00 NumWalkersEff/NumSamples 1.9583246714e-05
ERROR CostFunction-> Number of Effective Walkers is too small 1.0869434096e+00 NumWalkersEff/NumSamples 2.1229363469e-05
ERROR CostFunction-> Number of Effective Walkers is too small 1.0265302008e+00 NumWalkersEff/NumSamples 2.0049417984e-05
  Failed Step. Largest LM parameter change:1.6621135478e+03
ERROR   Using XS:-9.0000000000e+00 7 0
ERROR CostFunction-> Number of Effective Walkers is too small 2.4913502275e+04 NumWalkersEff/NumSamples 4.8659184131e-01
ERROR CostFunction-> Number of Effective Walkers is too small 1.1745368808e+01 NumWalkersEff/NumSamples 2.2940173454e-04
ERROR CostFunction-> Number of Effective Walkers is too small 1.0263292666e+00 NumWalkersEff/NumSamples 2.0045493487e-05
ERROR CostFunction-> Number of Effective Walkers is too small 1.0026347280e+00 NumWalkersEff/NumSamples 1.9582709531e-05
ERROR CostFunction-> Number of Effective Walkers is too small 1.0864002710e+00 NumWalkersEff/NumSamples 2.1218755292e-05
ERROR CostFunction-> Number of Effective Walkers is too small 1.0263292666e+00 NumWalkersEff/NumSamples 2.0045493487e-05
  Failed Step. Largest LM parameter change:1.0193727979e+03
ERROR   Using XS:-8.0000000000e+00 8 0
ERROR CostFunction-> Number of Effective Walkers is too small 2.4935193416e+04 NumWalkersEff/NumSamples 4.8701549641e-01
ERROR CostFunction-> Number of Effective Walkers is too small 1.1734801378e+01 NumWalkersEff/NumSamples 2.2919533942e-04
ERROR CostFunction-> Number of Effective Walkers is too small 1.0263117193e+00 NumWalkersEff/NumSamples 2.0045150768e-05
ERROR CostFunction-> Number of Effective Walkers is too small 1.0026325903e+00 NumWalkersEff/NumSamples 1.9582667780e-05
ERROR CostFunction-> Number of Effective Walkers is too small 1.0863499208e+00 NumWalkersEff/NumSamples 2.1217771890e-05
ERROR CostFunction-> Number of Effective Walkers is too small 1.0263117193e+00 NumWalkersEff/NumSamples 2.0045150768e-05
  Failed Step. Largest LM parameter change:1.8004977550e+03
ERROR   Using XS:-7.0000000000e+00 9 0
ERROR CostFunction-> Number of Effective Walkers is too small 2.5002280864e+04 NumWalkersEff/NumSamples 4.8832579812e-01
ERROR CostFunction-> Number of Effective Walkers is too small 1.1758032330e+01 NumWalkersEff/NumSamples 2.2964906894e-04
ERROR CostFunction-> Number of Effective Walkers is too small 1.0264705423e+00 NumWalkersEff/NumSamples 2.0048252779e-05
ERROR CostFunction-> Number of Effective Walkers is too small 1.0026542481e+00 NumWalkersEff/NumSamples 1.9583090783e-05
ERROR CostFunction-> Number of Effective Walkers is too small 1.0867830922e+00 NumWalkersEff/NumSamples 2.1226232269e-05
ERROR CostFunction-> Number of Effective Walkers is too small 1.0264705423e+00 NumWalkersEff/NumSamples 2.0048252779e-05
  Failed Step. Largest LM parameter change:1.9322469627e+03
ERROR   Using XS:-6.0000000000e+00 10 0
ERROR CostFunction-> Number of Effective Walkers is too small 2.2944427780e+04 NumWalkersEff/NumSamples 4.4813335509e-01
ERROR CostFunction-> Number of Effective Walkers is too small 1.1885499156e+01 NumWalkersEff/NumSamples 2.3213865538e-04
ERROR CostFunction-> Number of Effective Walkers is too small 1.0267448327e+00 NumWalkersEff/NumSamples 2.0053610014e-05
ERROR CostFunction-> Number of Effective Walkers is too small 1.0026948812e+00 NumWalkersEff/NumSamples 1.9583884398e-05
ERROR CostFunction-> Number of Effective Walkers is too small 1.0874769767e+00 NumWalkersEff/NumSamples 2.1239784701e-05
ERROR CostFunction-> Number of Effective Walkers is too small 1.0267448327e+00 NumWalkersEff/NumSamples 2.0053610014e-05
  Failed Step. Largest LM parameter change:1.3887404203e+03
ERROR   Using XS:-5.0000000000e+00 11 0
ERROR CostFunction-> Number of Effective Walkers is too small 2.3526131141e+04 NumWalkersEff/NumSamples 4.5949474885e-01
ERROR CostFunction-> Number of Effective Walkers is too small 1.1787565664e+01 NumWalkersEff/NumSamples 2.3022589187e-04
ERROR CostFunction-> Number of Effective Walkers is too small 1.0269828580e+00 NumWalkersEff/NumSamples 2.0058258946e-05
ERROR CostFunction-> Number of Effective Walkers is too small 1.0027295275e+00 NumWalkersEff/NumSamples 1.9584561084e-05
ERROR CostFunction-> Number of Effective Walkers is too small 1.0881160915e+00 NumWalkersEff/NumSamples 2.1252267412e-05
ERROR CostFunction-> Number of Effective Walkers is too small 1.0269828580e+00 NumWalkersEff/NumSamples 2.0058258946e-05
  Failed Step. Largest LM parameter change:1.4912927377e+03
ERROR   Using XS:-4.0000000000e+00 12 0
ERROR CostFunction-> Number of Effective Walkers is too small 2.5149208553e+04 NumWalkersEff/NumSamples 4.9119547954e-01
ERROR CostFunction-> Number of Effective Walkers is too small 1.0618822911e+01 NumWalkersEff/NumSamples 2.0739888498e-04
ERROR CostFunction-> Number of Effective Walkers is too small 1.0270529380e+00 NumWalkersEff/NumSamples 2.0059627695e-05
ERROR CostFunction-> Number of Effective Walkers is too small 1.0027446868e+00 NumWalkersEff/NumSamples 1.9584857165e-05
ERROR CostFunction-> Number of Effective Walkers is too small 1.0882352486e+00 NumWalkersEff/NumSamples 2.1254594699e-05
ERROR CostFunction-> Number of Effective Walkers is too small 1.0270529380e+00 NumWalkersEff/NumSamples 2.0059627695e-05
  Failed Step. Largest LM parameter change:1.3206679249e+03
ERROR   Using XS:-3.0000000000e+00 13 0
ERROR CostFunction-> Number of Effective Walkers is too small 1.0222331107e+04 NumWalkersEff/NumSamples 1.9965490444e-01
ERROR CostFunction-> Number of Effective Walkers is too small 5.5771944416e+03 NumWalkersEff/NumSamples 1.0892957894e-01
ERROR CostFunction-> Number of Effective Walkers is too small 1.4367468705e+04 NumWalkersEff/NumSamples 2.8061462314e-01
ERROR CostFunction-> Number of Effective Walkers is too small 1.0222331107e+04 NumWalkersEff/NumSamples 1.9965490444e-01
  Failed Step. Largest LM parameter change:1.0052636452e+07
ERROR   Using XS:-2.0000000000e+00 14 0
ERROR CostFunction-> Number of Effective Walkers is too small 9.9501052102e+03 NumWalkersEff/NumSamples 1.9433799239e-01
ERROR CostFunction-> Number of Effective Walkers is too small 5.3015260976e+03 NumWalkersEff/NumSamples 1.0354543159e-01
ERROR CostFunction-> Number of Effective Walkers is too small 1.4123883855e+04 NumWalkersEff/NumSamples 2.7585710655e-01
ERROR CostFunction-> Number of Effective Walkers is too small 9.9501052102e+03 NumWalkersEff/NumSamples 1.9433799239e-01
  Failed Step. Largest LM parameter change:1.2805759751e+07
ERROR   Using XS:-1.0000000000e+00 15 0
ERROR CostFunction-> Number of Effective Walkers is too small 9.9600605000e+03 NumWalkersEff/NumSamples 1.9453243164e-01
ERROR CostFunction-> Number of Effective Walkers is too small 5.2919636757e+03 NumWalkersEff/NumSamples 1.0335866554e-01
ERROR CostFunction-> Number of Effective Walkers is too small 1.4143817876e+04 NumWalkersEff/NumSamples 2.7624644289e-01
ERROR CostFunction-> Number of Effective Walkers is too small 9.9600605000e+03 NumWalkersEff/NumSamples 1.9453243164e-01
  Failed Step. Largest LM parameter change:1.2908026319e+07
ERROR   Using XS:0.0000000000e+00 16 0
ERROR CostFunction-> Number of Effective Walkers is too small 1.0673952469e+04 NumWalkersEff/NumSamples 2.0847563416e-01
ERROR CostFunction-> Number of Effective Walkers is too small 5.9526707712e+03 NumWalkersEff/NumSamples 1.1626310100e-01
ERROR CostFunction-> Number of Effective Walkers is too small 1.4828703837e+04 NumWalkersEff/NumSamples 2.8962312181e-01
ERROR CostFunction-> Number of Effective Walkers is too small 1.0673952469e+04 NumWalkersEff/NumSamples 2.0847563416e-01
  Failed Step. Largest LM parameter change:1.2730220530e+07
ERROR   Using XS:1.0000000000e+00 17 0
ERROR CostFunction-> Number of Effective Walkers is too small 9.7132711034e+03 NumWalkersEff/NumSamples 1.8971232624e-01
ERROR CostFunction-> Number of Effective Walkers is too small 5.1147322856e+03 NumWalkersEff/NumSamples 9.9897114954e-02
ERROR CostFunction-> Number of Effective Walkers is too small 1.3871753734e+04 NumWalkersEff/NumSamples 2.7093269012e-01
ERROR CostFunction-> Number of Effective Walkers is too small 9.7132711034e+03 NumWalkersEff/NumSamples 1.8971232624e-01
  Failed Step. Largest LM parameter change:1.1083575485e+07
ERROR   Using XS:2.0000000000e+00 18 0
ERROR CostFunction-> Number of Effective Walkers is too small 4.2141801546e+00 NumWalkersEff/NumSamples 8.2308206145e-05
ERROR CostFunction-> Number of Effective Walkers is too small 1.0066952988e+00 NumWalkersEff/NumSamples 1.9662017555e-05
ERROR CostFunction-> Number of Effective Walkers is too small 1.0004409276e+00 NumWalkersEff/NumSamples 1.9539861868e-05
ERROR CostFunction-> Number of Effective Walkers is too small 1.0270147186e+00 NumWalkersEff/NumSamples 2.0058881223e-05
ERROR CostFunction-> Number of Effective Walkers is too small 1.0066952988e+00 NumWalkersEff/NumSamples 1.9662017555e-05
  Failed Step. Largest LM parameter change:1.7012571296e+03
ERROR   Using XS:3.0000000000e+00 19 0
ERROR CostFunction-> Number of Effective Walkers is too small 9.8155925295e+03 NumWalkersEff/NumSamples 1.9171079159e-01
ERROR CostFunction-> Number of Effective Walkers is too small 5.1805725635e+03 NumWalkersEff/NumSamples 1.0118305788e-01
ERROR CostFunction-> Number of Effective Walkers is too small 1.3986740075e+04 NumWalkersEff/NumSamples 2.7317851709e-01
ERROR CostFunction-> Number of Effective Walkers is too small 9.8155925295e+03 NumWalkersEff/NumSamples 1.9171079159e-01
  Failed Step. Largest LM parameter change:1.2721272670e+07
ERROR   Using XS:4.0000000000e+00 20 0
ERROR CostFunction-> Number of Effective Walkers is too small 1.0708456968e+04 NumWalkersEff/NumSamples 2.0914955016e-01
ERROR CostFunction-> Number of Effective Walkers is too small 5.9531089565e+03 NumWalkersEff/NumSamples 1.1627165931e-01
ERROR CostFunction-> Number of Effective Walkers is too small 1.4876747169e+04 NumWalkersEff/NumSamples 2.9056146815e-01
ERROR CostFunction-> Number of Effective Walkers is too small 1.0708456968e+04 NumWalkersEff/NumSamples 2.0914955016e-01
  Failed Step. Largest LM parameter change:1.3864893221e+07
ERROR Revertting to old Parameters
ERROR   Execution time = 1.0828952014e+01
  </log>
  <optVariables href="O.q1.opt.s011.opt.xml">
uu_0 -4.4525096473e+00 1 1  ON 0
uu_1 -4.6441192386e+00 1 1  ON 1
uu_2 -4.7130254062e+00 1 1  ON 2
uu_3 -4.7409048973e+00 1 1  ON 3
uu_4 -4.7635446344e+00 1 1  ON 4
uu_5 -4.8276642345e+00 1 1  ON 5
uu_6 -4.9722677366e+00 1 1  ON 6
uu_7 -3.3910378901e+00 1 1  ON 7
ud_0 8.8768256456e-01 1 1  ON 8
ud_1 5.2618066139e-01 1 1  ON 9
ud_2 5.3290331547e-01 1 1  ON 10
ud_3 5.9373701873e-01 1 1  ON 11
ud_4 6.9034662924e-01 1 1  ON 12
ud_5 1.0841688693e+00 1 1  ON 13
ud_6 6.1995792818e-01 1 1  ON 14
ud_7 2.9903593776e+00 1 1  ON 15
eO_0 -9.6919714064e-01 1 1  ON 16
eO_1 -8.7783881438e-01 1 1  ON 17
eO_2 -7.4492978074e-01 1 1  ON 18
eO_3 -6.1046254256e-01 1 1  ON 19
eO_4 -5.1649207099e-01 1 1  ON 20
eO_5 -4.3149692740e-01 1 1  ON 21
eO_6 -3.6784051998e-01 1 1  ON 22
eO_7 -2.6283851948e-01 1 1  ON 23
  </optVariables>
   Restore the number of walkers to 16, removing 84 walkers.
</opt>
</optimization-report>
  QMC Execution time = 1.0851229881e+01 secs 
  Total Execution time = 1.3282618802e+02 secs

=========================================================
  A new xml input file : O.q1.opt.s011.cont.xml
