
     Program PWSCF v.5.0        starts on 27May2016 at 16: 0:51 

     This program is part of the open-source Quantum ESPRESSO suite
     for quantum simulation of materials; please cite
         "P. Giannozzi et al., J. Phys.:Condens. Matter 21 395502 (2009);
          URL http://www.quantum-espresso.org", 
     in publications or presentations arising from this work. More details at
     http://www.quantum-espresso.org/quote.php

     Parallel version (MPI), running on   512 processors
     R & G space division:  proc/pool =  512

     Current dimensions of program PWSCF are:
     Max number of different atomic species (ntypx) = 10
     Max number of k-points (npk) =  40000
     Max angular momentum in pseudopotentials (lmaxx) =  3
     Reading input from O.q1.dft.in

     IMPORTANT: XC functional enforced from input :
     Exchange-correlation      = LDA ( 1 1 0 0 0)
     EXX-fraction              =        0.00
     Any further DFT definition will be discarded
     Please, verify this is what you really want

               file O.BFD.upf: wavefunction(s)  0s 0p renormalized

     Subspace diagonalization in iterative solution of the eigenvalue problem:
     a serial algorithm will be used

 
     Parallelization info
     --------------------
     sticks:   dense  smooth     PW     G-vecs:    dense   smooth      PW
     Min          44      44     11                 5032     5032     625
     Max          45      45     12                 5043     5043     635
     Sum       22733   22733   5689              2578383  2578383  322453
 


     bravais-lattice index     =            0
     lattice parameter (alat)  =       1.0000  a.u.
     unit-cell volume          =    6748.3346 (a.u.)^3
     number of atoms/cell      =            1
     number of atomic types    =            1
     number of electrons       =         5.00 (up:   4.00, down:   1.00)
     number of Kohn-Sham states=            8
     kinetic-energy cutoff     =     200.0000  Ry
     charge density cutoff     =     800.0000  Ry
     convergence threshold     =      1.0E-06
     mixing beta               =       0.2000
     number of iterations used =            8  plain     mixing
     Exchange-correlation      = LDA ( 1 1 0 0 0)
     EXX-fraction              =        0.00

     celldm(1)=   1.000000  celldm(2)=   0.000000  celldm(3)=   0.000000
     celldm(4)=   0.000000  celldm(5)=   0.000000  celldm(6)=   0.000000

     crystal axes: (cart. coord. in units of alat)
               a(1) = (  18.897261   0.000000   0.000000 )  
               a(2) = (   0.000000  18.897261   0.000000 )  
               a(3) = (   0.000000   0.000000  18.897261 )  

     reciprocal axes: (cart. coord. in units 2 pi/alat)
               b(1) = (  0.052918  0.000000  0.000000 )  
               b(2) = (  0.000000  0.052918  0.000000 )  
               b(3) = (  0.000000  0.000000  0.052918 )  


     PseudoPot. # 1 for O  read from file:
     ./O.BFD.upf
     MD5 check sum: e50a3faf6d087c8e93bb07d695ababf7
     Pseudo is Norm-conserving, Zval =  6.0
     Generated by new atomic code, or converted to UPF format
     Using radial grid of 2000 points,  1 beta functions with: 
                l(1) =   0

     atomic species   valence    mass     pseudopotential
        O              6.00    15.99900     O ( 1.00)

     Starting magnetic structure 
     atomic species   magnetization
        O            0.000

     No symmetry found


                                    s                        frac. trans.

      isym =  1     identity                                     

 cryst.   s( 1) = (     1          0          0      )
                  (     0          1          0      )
                  (     0          0          1      )

 cart.    s( 1) = (  1.0000000  0.0000000  0.0000000 )
                  (  0.0000000  1.0000000  0.0000000 )
                  (  0.0000000  0.0000000  1.0000000 )


     point group C_1 (1)    
     there are  1 classes
     the character table:

       E    
A      1.00

     the symmetry operations in each class:
     E        1

   Cartesian axes

     site n.     atom                  positions (alat units)
         1           O   tau(   1) = (   9.4486307   9.4486316   9.4486325  )

   Crystallographic axes

     site n.     atom                  positions (cryst. coord.)
         1           O   tau(   1) = (  0.5000000  0.5000001  0.5000001  )

     number of k points=     2  Fermi-Dirac smearing, width (Ry)=  0.0001
                       cart. coord. in units 2pi/alat
        k(    1) = (   0.0000000   0.0000000   0.0000000), wk =   1.0000000
        k(    2) = (   0.0000000   0.0000000   0.0000000), wk =   1.0000000

                       cryst. coord.
        k(    1) = (   0.0000000   0.0000000   0.0000000), wk =   1.0000000
        k(    2) = (   0.0000000   0.0000000   0.0000000), wk =   1.0000000

     Dense  grid:  2578383 G-vectors     FFT dimensions: ( 176, 176, 176)

     Largest allocated arrays     est. size (Mb)     dimensions
        Kohn-Sham Wavefunctions         0.08 Mb     (    635,    8)
        NL pseudopotentials             0.01 Mb     (    635,    1)
        Each V/rho on FFT grid          0.95 Mb     (  30976,   2)
        Each G-vector array             0.04 Mb     (   5034)
        G-vector shells                 0.02 Mb     (   1978)
     Largest temporary arrays     est. size (Mb)     dimensions
        Auxiliary wavefunctions         0.31 Mb     (    635,   32)
        Each subspace H/S matrix        0.02 Mb     (  32,  32)
        Each <psi_i|beta_j> matrix      0.00 Mb     (      1,    8)
        Arrays for rho mixing           3.78 Mb     (  30976,   8)

     Initial potential from superposition of free atoms

     starting charge    0.47747, renormalised to    5.00000

     negative rho (up, down):  0.272E-03 0.272E-03
     Starting wfc are    4 randomized atomic wfcs

     total cpu time spent up to now is       17.1 secs

     per-process dynamical memory:    18.4 Mb

     Self-consistent Calculation

     iteration #  1     ecut=   200.00 Ry     beta=0.20
     Davidson diagonalization with overlap
     ethr =  1.00E-02,  avg # of iterations =  4.0

     negative rho (up, down):  0.218E-03 0.218E-03

     total cpu time spent up to now is       25.4 secs

     total energy              =     -30.56616524 Ry
     Harris-Foulkes estimate   =     -30.50202329 Ry
     estimated scf accuracy    <       0.48685320 Ry

     total magnetization       =     3.00 Bohr mag/cell
     absolute magnetization    =     3.00 Bohr mag/cell

     iteration #  2     ecut=   200.00 Ry     beta=0.20
     Davidson diagonalization with overlap
     ethr =  9.74E-03,  avg # of iterations =  1.0

     negative rho (up, down):  0.388E-04 0.399E-04

     total cpu time spent up to now is       33.1 secs

     total energy              =     -30.68861022 Ry
     Harris-Foulkes estimate   =     -30.56849694 Ry
     estimated scf accuracy    <       0.28228562 Ry

     total magnetization       =     3.00 Bohr mag/cell
     absolute magnetization    =     3.00 Bohr mag/cell

     iteration #  3     ecut=   200.00 Ry     beta=0.20
     Davidson diagonalization with overlap
     ethr =  5.65E-03,  avg # of iterations =  1.5

     negative rho (up, down):  0.143E-04 0.168E-04

     total cpu time spent up to now is       40.8 secs

     total energy              =     -30.72149422 Ry
     Harris-Foulkes estimate   =     -30.71418882 Ry
     estimated scf accuracy    <       0.00899419 Ry

     total magnetization       =     3.00 Bohr mag/cell
     absolute magnetization    =     3.00 Bohr mag/cell

     iteration #  4     ecut=   200.00 Ry     beta=0.20
     Davidson diagonalization with overlap
     ethr =  1.80E-04,  avg # of iterations =  2.0

     negative rho (up, down):  0.146E-05 0.833E-05

     total cpu time spent up to now is       48.8 secs

     total energy              =     -30.71461549 Ry
     Harris-Foulkes estimate   =     -30.73325463 Ry
     estimated scf accuracy    <       0.03578776 Ry

     total magnetization       =     3.00 Bohr mag/cell
     absolute magnetization    =     3.00 Bohr mag/cell

     iteration #  5     ecut=   200.00 Ry     beta=0.20
     Davidson diagonalization with overlap
     ethr =  1.80E-04,  avg # of iterations =  2.0

     negative rho (up, down):  0.144E-05 0.783E-05

     total cpu time spent up to now is       56.8 secs

     total energy              =     -30.72002779 Ry
     Harris-Foulkes estimate   =     -30.72002006 Ry
     estimated scf accuracy    <       0.00001217 Ry

     total magnetization       =     3.00 Bohr mag/cell
     absolute magnetization    =     3.00 Bohr mag/cell

     iteration #  6     ecut=   200.00 Ry     beta=0.20
     Davidson diagonalization with overlap
     ethr =  2.43E-07,  avg # of iterations =  4.0

     negative rho (up, down):  0.730E-07 0.270E-07

     total cpu time spent up to now is       65.0 secs

     total energy              =     -30.72006952 Ry
     Harris-Foulkes estimate   =     -30.72002928 Ry
     estimated scf accuracy    <       0.00001278 Ry

     total magnetization       =     3.00 Bohr mag/cell
     absolute magnetization    =     3.00 Bohr mag/cell

     iteration #  7     ecut=   200.00 Ry     beta=0.20
     Davidson diagonalization with overlap
     ethr =  2.43E-07,  avg # of iterations =  1.5

     total cpu time spent up to now is       72.7 secs

     total energy              =     -30.72006116 Ry
     Harris-Foulkes estimate   =     -30.72007250 Ry
     estimated scf accuracy    <       0.00002051 Ry

     total magnetization       =     3.00 Bohr mag/cell
     absolute magnetization    =     3.00 Bohr mag/cell

     iteration #  8     ecut=   200.00 Ry     beta=0.20
     Davidson diagonalization with overlap
     ethr =  2.43E-07,  avg # of iterations =  2.0

     total cpu time spent up to now is       73.8 secs

     End of self-consistent calculation

 ------ SPIN UP ------------


          k = 0.0000 0.0000 0.0000 (322453 PWs)   bands (ev):

   -36.9288 -22.2056 -22.2056 -22.2056  -2.1863   0.1828   0.1828   0.1828

     occupation numbers 
     1.0000   1.0000   1.0000   1.0000   0.0000   0.0000   0.0000   0.0000

 ------ SPIN DOWN ----------


          k = 0.0000 0.0000 0.0000 (322453 PWs)   bands (ev):

   -30.9290 -16.1934 -16.1934 -16.1934  -1.5597   0.5930   0.5930   0.5930

     occupation numbers 
     1.0000   0.0000   0.0000   0.0000   0.0000   0.0000   0.0000   0.0000

     the spin up/dw Fermi energies are   -18.1679  -18.1679 ev

!    total energy              =     -30.72006420 Ry
     Harris-Foulkes estimate   =     -30.72006421 Ry
     estimated scf accuracy    <       0.00000007 Ry

     The total energy is the sum of the following terms:

     one-electron contribution =     -36.77622742 Ry
     hartree contribution      =      17.25766731 Ry
     xc contribution           =      -5.79634472 Ry
     ewald contribution        =      -5.40515938 Ry
     smearing contrib. (-TS)   =       0.00000000 Ry

     total magnetization       =     3.00 Bohr mag/cell
     absolute magnetization    =     3.00 Bohr mag/cell

     convergence has been achieved in   8 iterations

     Writing output data file O.q1.save
 
     init_run     :     15.95s CPU     15.95s WALL (       1 calls)
     electrons    :     56.70s CPU     56.70s WALL (       1 calls)

     Called by init_run:
     wfcinit      :      0.38s CPU      0.38s WALL (       1 calls)
     potinit      :      0.67s CPU      0.67s WALL (       1 calls)

     Called by electrons:
     c_bands      :      6.86s CPU      6.86s WALL (       8 calls)
     sum_band     :      1.66s CPU      1.66s WALL (       8 calls)
     v_of_rho     :      0.69s CPU      0.69s WALL (       9 calls)
     v_h          :      0.11s CPU      0.11s WALL (       9 calls)
     v_xc         :      0.58s CPU      0.58s WALL (       9 calls)
     mix_rho      :      0.23s CPU      0.23s WALL (       8 calls)

     Called by c_bands:
     init_us_2    :      0.01s CPU      0.01s WALL (      34 calls)
     cegterg      :      6.75s CPU      6.75s WALL (      16 calls)

     Called by sum_band:

     Called by *egterg:
     h_psi        :      6.84s CPU      6.84s WALL (      54 calls)
     g_psi        :      0.02s CPU      0.02s WALL (      36 calls)
     cdiaghg      :      0.09s CPU      0.09s WALL (      52 calls)
     cegterg:over :      0.03s CPU      0.03s WALL (      36 calls)
     cegterg:upda :      0.03s CPU      0.03s WALL (      36 calls)
     cegterg:last :      0.01s CPU      0.01s WALL (      16 calls)

     Called by h_psi:
     h_psi:vloc   :      6.81s CPU      6.81s WALL (      54 calls)
     h_psi:vnl    :      0.03s CPU      0.03s WALL (      54 calls)
     add_vuspsi   :      0.01s CPU      0.01s WALL (      54 calls)

     General routines
     calbec       :      0.02s CPU      0.02s WALL (      54 calls)
     fft          :      0.71s CPU      0.71s WALL (      60 calls)
     fftw         :      7.76s CPU      7.76s WALL (     858 calls)
 
     Parallel routines
     fft_scatter  :      1.38s CPU      1.38s WALL (     918 calls)
     EXX routines
 
     PWSCF        :  1m33.83s CPU     1m33.83s WALL

 
   This run was terminated on:  16: 2:25  27May2016            

=------------------------------------------------------------------------------=
   JOB DONE.
=------------------------------------------------------------------------------=
