Fri Jun 20 19:07:59 UTC 2014
  Input file(s): O.q0.opt.in.xml 

=====================================================
                    QMCPACK 1.0.0 

  (c) Copyright 2003-  QMCPACK developers            

  Subversion branch 6312
  Last modified     2014-05-19 15:22:38 +0000 (Mon, 19 May 2014)
=====================================================
  Global options 
  async_swap=0 : using blocking send/recv for walker swaps 

  MPI Nodes            = 32
  MPI Nodes per group  = 32
  MPI Group ID         = 0
  OMP_NUM_THREADS      = 64
  Input XML = O.q0.opt.in.xml

  Project = O_q0_opt
  date    = 2014-06-20 19:08:05 UTC
  host    = Q02-I4-J07.vesta.itd
  user    = krogel

  DO NOT READ DENSITY
  Offset for the random number seeds based on time 661
  Random number offset = 661  seeds = 4957-24419
  ParticleSetPool::putLattice
  Create Global SuperCell 
  Simulation cell radius = 14.172946
  Wigner-Seitz    radius = 14.172946
<unitcell>
<parameter name="lattice">
     28.3458919900      0.0000000000      0.0000000000
      0.0000000000     28.3458948300      0.0000000000
      0.0000000000      0.0000000000     28.3458976600
</parameter>
<parameter name="bconds">  n  n  n </parameter>
<note>
Volume (A^3) = 22775.6360477081
Reciprocal vectors without 2*pi.
g_1 =       0.0352784806      0.0000000000      0.0000000000
g_2 =       0.0000000000      0.0352784770      0.0000000000
g_3 =       0.0000000000      0.0000000000      0.0352784735
Metric tensor in real-space.
h_1 = 803.4895927087 0.0000000000 0.0000000000 
h_2 = 0.0000000000 803.4897537134 0.0000000000 
h_3 = 0.0000000000 0.0000000000 803.4899141512 
Metric tensor in g-space.
h_1 = 0.0491337012 0.0000000000 0.0000000000 
h_2 = 0.0000000000 0.0491336914 0.0000000000 
h_3 = 0.0000000000 0.0000000000 0.0491336816 
</note>
<note>
	Long-range breakup parameters:
	rc*kc = 15.0000000000; rc = 1000000.0000000000; kc = 0.0000000000

</note>
</unitcell>
  ParticleSetPool::put
  Creating e particleset
  Initializing the lattice of e by the global supercell
  XMLParticleParser::putSpecial
  All the species have the same mass 1.0000000000
Particles are grouped. Safe to use groups 
e
  ParticleSetPool::put
  Creating ion0 particleset
  Initializing the lattice of ion0 by the global supercell
  XMLParticleParser::putSpecial
  All the species have the same mass 29164.3928678000
Particles are grouped. Safe to use groups 
ion0
 Adding WavefunctionFactory for psi0
  WaveFunctionFactory::build
building sposet collection of type bspline
  BasisSetFactory::createBasisSet
EinsplineSetBuilder:  using libeinspline for B-spline orbitals.

Built BasisSetBuilder "bspline" of type bspline
  Building SPOSet "spo_u" with bspline BasisSetBuilder
TOKEN=0 createSPOSetFromXML /soft/applications/qmcpack/src/QMCWaveFunctions/EinsplineSetBuilder_createSPOs.cpp 42
  Distance table for AA: source/target = e
    PBC=open Orthorhombic=NA
 using Cartesian coordinates with 
  ... ParticleSet::addTable Create Table #0 e_e
  Distance table for AB: source = ion0 target = e
    PBC=open Orthorhombic=NA
 using Cartesian coordinates 
  ... ParticleSet::addTable Create Table #1 ion0_e
  Reading 4 orbitals from HDF5 file.
TOKEN=1 ReadOrbitalInfo /soft/applications/qmcpack/src/QMCWaveFunctions/EinsplineSetBuilderOld.cpp 34
  HDF5 orbital file version 2.0.0
TOKEN=2 ReadOrbitalInfo_ESHDF /soft/applications/qmcpack/src/QMCWaveFunctions/EinsplineSetBuilderESHDF.fft.cpp 47
  Reading orbital file in ESHDF format.
  ESHDF orbital file version 2.0.0
  Lattice = 
    [ 28.345892  0.000000  0.000000
       0.000000 28.345895  0.000000
       0.000000  0.000000 28.345898 ]
TOKEN=3 CheckLattice /soft/applications/qmcpack/src/QMCWaveFunctions/EinsplineSetBuilderCommon.cpp 100
  SuperLattice = 
    [ 28.345892  0.000000  0.000000
       0.000000 28.345895  0.000000
       0.000000  0.000000 28.345898 ]
bands=8, elecs=6, spins=2, twists=1, muffin tins=0, core states=0
atomic orbital=0
Atom type(0) = 8
   Skip initialization of the density
TIMER  EinsplineSetBuilder::ReadOrbitalInfo 0.0954892306
TIMER  EinsplineSetBuilder::BroadcastOrbitalInfo 0.0001036013
Found 1 distinct supercell twists.
number of things
1
1
Super twist #0:  [   0.00000   0.00000   0.00000 ]
  Using supercell twist 0:  [   0.00000   0.00000   0.00000]
Using 1 copies of twist angle [-0.000, -0.000, -0.000]
Using real orbitals.
TOKEN=4 TileIons /soft/applications/qmcpack/src/QMCWaveFunctions/EinsplineSetBuilderCommon.cpp 295
TOKEN=5 OccupyBands /soft/applications/qmcpack/src/QMCWaveFunctions/EinsplineSetBuilderCommon.cpp 763
TOKEN=6 OccupyBands_ESHDF /soft/applications/qmcpack/src/QMCWaveFunctions/EinsplineSetBuilderESHDF.fft.cpp 308
Sorting the bands now:
We will read 4 distinct orbitals.
There are 0 core states and 4 valence states.
Rcut = 0.0000000000
dilation = 1
TOKEN=7 bcastSortBands /soft/applications/qmcpack/src/QMCWaveFunctions/einspline_helper.hpp 407
BandInfoGroup::selectBands bigspace has 8 distinct orbitals 
BandInfoGroup::selectBands using distinct orbitals [0,4)
  Number of distinct bands 4
  First Band index 0
  First SPO index 0
  Size of SPOs 4
  SplineC2XAdoptorReader::create_spline_set(spin,SPE*)
  AdoptorName = SplineR2RAdoptor
  Using real einspline table
NumDistinctOrbitals 4 numOrbs = 4
  TwistIndex = 0 TwistAngle      -0.0000000000     -0.0000000000     -0.0000000000
   HalfG =                  0                 0                 0
TOKEN=8 ReadGvectors_ESHDF /soft/applications/qmcpack/src/QMCWaveFunctions/EinsplineSetBuilderReadBands_ESHDF.cpp 658
B-spline mesh factor is 1.0000000000
B-spline mesh size is (256, 256, 256)
Maxmimum number of Gvecs 1088527
  Using meshsize=               256               256               256
  vs input meshsize=               256               256               256
  Time to read the table in einspline.tile_100010001.spin_0.tw_0.l0u4.g256x256x256.h5 = 0.0235431431
  SplineAdoptorReader initialize_spline_pio 7.8704619375 sec
MEMORY increase 265 MB BsplineSetReder
   Using Identity for the LCOrbitalSet 
  Building SPOSet "spo_d" with bspline BasisSetBuilder
TOKEN=9 createSPOSetFromXML /soft/applications/qmcpack/src/QMCWaveFunctions/EinsplineSetBuilder_createSPOs.cpp 42
  ... ParticleSet::addTable Reuse Table #1 ion0_e
TOKEN=10 OccupyBands /soft/applications/qmcpack/src/QMCWaveFunctions/EinsplineSetBuilderCommon.cpp 763
TOKEN=11 OccupyBands_ESHDF /soft/applications/qmcpack/src/QMCWaveFunctions/EinsplineSetBuilderESHDF.fft.cpp 308
Sorting the bands now:
We will read 0 distinct orbitals.
There are 0 core states and 0 valence states.
Rcut = 0.0000000000
dilation = 1
TOKEN=12 bcastSortBands /soft/applications/qmcpack/src/QMCWaveFunctions/einspline_helper.hpp 407
BandInfoGroup::selectBands bigspace has 8 distinct orbitals 
BandInfoGroup::selectBands using distinct orbitals [0,2)
  Number of distinct bands 2
  First Band index 0
  First SPO index 0
  Size of SPOs 2
  SplineC2XAdoptorReader::create_spline_set(spin,SPE*)
  AdoptorName = SplineR2RAdoptor
  Using real einspline table
NumDistinctOrbitals 2 numOrbs = 2
  TwistIndex = 0 TwistAngle      -0.0000000000     -0.0000000000     -0.0000000000
   HalfG =                  0                 0                 0
TOKEN=13 ReadGvectors_ESHDF /soft/applications/qmcpack/src/QMCWaveFunctions/EinsplineSetBuilderReadBands_ESHDF.cpp 658
B-spline mesh factor is 1.0000000000
B-spline mesh size is (256, 256, 256)
Maxmimum number of Gvecs 1088527
  Using meshsize=               256               256               256
  vs input meshsize=               256               256               256
  Time to read the table in einspline.tile_100010001.spin_1.tw_0.l0u2.g256x256x256.h5 = 0.0330927731
  SplineAdoptorReader initialize_spline_pio 7.5880303200 sec
MEMORY increase 132 MB BsplineSetReder
   Using Identity for the LCOrbitalSet 
  WaveFunctionFactory::addFermionTerm
  SlaterDetBuilder::put(xmlNodePtr)
  SlaterDetBuilder::putDeterminant(xmlNodePtr,int)
  Creating a determinant updet group=0 sposet=spo_u
  Reusing a SPO set spo_u

  SlaterDetBuilder::putDeterminant(xmlNodePtr,int)
  Creating a determinant downdet group=1 sposet=spo_d
  Reusing a SPO set spo_d

  FermionWF=SlaterDet
  JastrowBuilder::addOneBody(xmlNodePtr)

  Using BsplineBuilder for one-body jastrow with B-spline functions
  BsplineJastrowBuilder::put(xmlNodePtr)
  BsplineJastrowBuilder::createOneBodyJastrow(xmlNodePtr)
  ... ParticleSet::addTable Reuse Table #1 ion0_e
  ... ParticleSet::addTable Reuse Table #1 ion0_e
  BsplineFunctor::put(xmlNodePtr)
 size = 8 parameters 
 cusp = 0.0000000000
 rcut = 4.5000000000
Parameter     Name      Value
eO_0 0.0000000000 1 1  ON 0
eO_1 0.0000000000 1 1  ON 1
eO_2 0.0000000000 1 1  ON 2
eO_3 0.0000000000 1 1  ON 3
eO_4 0.0000000000 1 1  ON 4
eO_5 0.0000000000 1 1  ON 5
eO_6 0.0000000000 1 1  ON 6
eO_7 0.0000000000 1 1  ON 7
  JastrowBuilder::addTwoBody(xmlNodePtr)
  PadeJastrowBuilder::put()
  HamiltonianPool::put
  QMCHamiltonian::addOperator Kinetic to H, physical Hamiltonian 
  ... ParticleSet::addTable Reuse Table #0 e_e
  QMCHamiltonian::addOperator ElecElec to H, physical Hamiltonian 
  CoulombAA for ion0 is not created.  Number of particles == 1 and nonPeriodic

  ECPotential builder for pseudopotential 

  Adding pseudopotential for O
   Linear grid  ri=0.0000000000 rf=10.0000000000 npts = 10001
    ECPComponentBuilder::buildSemiLocalAndLocal 
    Assuming Hartree unit
   Number of angular momentum channels 2
   Maximum angular momentum channel 1
   Creating a Linear Grid Rmax=1.3100000000
  Using global grid with delta = 0.0010000000
   Making L=1 a local potential with a radial cutoff of 9.9980000000
  NonLocalECPComponent::resize_warrays 
    Non-local pseudopotential parameters
    Maximum angular mementum = 0
    Number of non-local channels = 1
       l(0)=0
    Cutoff radius = 1.3100000000
    Spherical grids and weights: 
             1.0000000000      0.0000000000      0.0000000000        0.0833333333
            -1.0000000000      0.0000000000      0.0000000000        0.0833333333
             0.4472135955      0.8944271910      0.0000000000        0.0833333333
            -0.4472135955      0.7236067977      0.5257311121        0.0833333333
             0.4472135955      0.2763932023      0.8506508084        0.0833333333
            -0.4472135955     -0.2763932023      0.8506508084        0.0833333333
             0.4472135955     -0.7236067977      0.5257311121        0.0833333333
            -0.4472135955     -0.8944271910      0.0000000000        0.0833333333
             0.4472135955     -0.7236067977     -0.5257311121        0.0833333333
            -0.4472135955     -0.2763932023     -0.8506508084        0.0833333333
             0.4472135955      0.2763932023     -0.8506508084        0.0833333333
            -0.4472135955      0.7236067977     -0.5257311121        0.0833333333
    Maximum cutoff radius 1.3100000000
  ... ParticleSet::addTable Reuse Table #1 ion0_e
  QMCHamiltonian::addOperator LocalECP to H, physical Hamiltonian 
  ForceBase::ForceBase
  ... ParticleSet::addTable Reuse Table #1 ion0_e
  ... ParticleSet::addTable Reuse Table #1 ion0_e

  Using NonLocalECP potential 
    Maximum grid on a sphere for NonLocalECPotential: 12
  QMCHamiltonian::addOperator NonLocalECP to H, physical Hamiltonian 

  QMCHamiltonian::add2WalkerProperty added
    4 to P::PropertyList 
    0 to P::Collectables 
    starting Index of the observables in P::PropertyList = 9
  Hamiltonian disables VirtualMoves
ParticleSetPool::randomize 
<init source="ion0" target="e">
</init>
=========================================================
 Summary of QMC systems 
=========================================================
ParticleSetPool has: 

  ParticleSet e : 0 4 6 

    6

    u  1.5729831500e+01  1.3322788037e+01  1.3038662456e+01
    u  1.4094922881e+01  1.4443372019e+01  1.5450226988e+01
    u  1.4886276178e+01  1.6231143366e+01  1.4397724337e+01
    u  1.3047046962e+01  1.2371612626e+01  1.4544017854e+01
    d  1.4852093686e+01  1.6382373390e+01  1.3599322055e+01
    d  1.5399302150e+01  1.5932425453e+01  1.5684605919e+01

  ParticleSet ion0 : 0 1 

    1

    O  1.4172946000e+01  1.4172947410e+01  1.4172948830e+01

  Hamiltonian h0
  Kinetic         Kinetic energy
  ElecElec        CoulombAA source/target e

  LocalECP        LocalECPotential: ion0
  NonLocalECP     NonLocalECPotential: ion0
Loop execution max-interations = 8

=========================================================
  Start QMCFixedSampleLinearOptimize
  File Root O_q0_opt.s000 append = no 
=========================================================
  Skip QMCDriver::putQMCInfo 
  Resetting Properties of the walkers 1 x 13
  Adding 64 walkers to 0 existing sets
  Total number of walkers: 2.0480000000e+03
  Total weight: 2.0480000000e+03

=========================================================
  Start VMCSingleOMP
  File Root O_q0_opt.s000 append = no 
=========================================================
  Using the current 64 walkers.
  Total number of walkers: 2.0480000000e+03
  Total weight: 2.0480000000e+03
  Resetting Properties of the walkers 1 x 13

<vmc function="put">
  qmc_counter=0  my_counter=0
  time step      = 3.0000000000e-01
  blocks         = 200
  steps          = 1
  substeps       = 1
  current        = 0
  target samples = 2.0000000000e+04
  walkers/mpi    = 64

  stepsbetweensamples = 20
<parameter name="blocks" condition="int">200</parameter>
<parameter name="check_properties" condition="int">100</parameter>
<parameter name="checkproperties" condition="int">100</parameter>
<parameter name="current" condition="int">0</parameter>
<parameter name="dmcwalkersperthread" condition="real">1.0000000000e+01</parameter>
<parameter name="maxcpusecs" condition="real">3.6000000000e+05</parameter>
<parameter name="record_configs" condition="int">0</parameter>
<parameter name="record_walkers" condition="int">20</parameter>
<parameter name="recordconfigs" condition="int">0</parameter>
<parameter name="recordwalkers" condition="int">20</parameter>
<parameter name="rewind" condition="int">0</parameter>
<parameter name="samples" condition="real">2.0000000000e+04</parameter>
<parameter name="samplesperthread" condition="real">1.0000000000e+01</parameter>
<parameter name="steps" condition="int">1</parameter>
<parameter name="stepsbetweensamples" condition="int">20</parameter>
<parameter name="store_configs" condition="int">0</parameter>
<parameter name="storeconfigs" condition="int">0</parameter>
<parameter name="sub_steps" condition="int">1</parameter>
<parameter name="substeps" condition="int">1</parameter>
<parameter name="tau" condition="au">3.0000000000e-01</parameter>
<parameter name="time_step" condition="au">3.0000000000e-01</parameter>
<parameter name="timestep" condition="au">3.0000000000e-01</parameter>
<parameter name="use_drift" condition="string">yes</parameter>
<parameter name="usedrift" condition="string">yes</parameter>
<parameter name="walkers" condition="int">64</parameter>
<parameter name="warmup_steps" condition="int">50</parameter>
<parameter name="warmupsteps" condition="int">50</parameter>
  DumpConfig==false Nothing (configurations, state) will be saved.
  Walker Samples are dumped every 20 steps.
</vmc>

 TraceManager::put() 1
  traces requested          : 0
  method allows traces      : 0
  traces available          : 0

  Adding a default LocalEnergyEstimator for the MainEstimator 
 Using QMCCostFunctionOMP::QMCCostFunctionOMP

 TraceManager::put() 1
  traces requested          : 0
  method allows traces      : 0
  traces available          : 0

  Adding a default LocalEnergyEstimator for the MainEstimator 
<optimization-report>
<vmc stage="main" blocks="1">
  CloneManager::makeClones makes 64 clones for W/Psi/H.
  Cloning methods for both Psi and H are used
  Initial partition of walkers 0 1 2 3 4 5 6 7 8 9 10 11 12 13 14 15 16 17 18 19 20 21 22 23 24 25 26 27 28 29 30 31 32 33 34 35 36 37 38 39 40 41 42 43 44 45 46 47 48 49 50 51 52 53 54 55 56 57 58 59 60 61 62 63 64 
  PbyP moves with drift, using VMCUpdatePbyPWithDriftFast

  Total Sample Size   =20480
  Walker distribution on root = 0 1 2 3 4 5 6 7 8 9 10 11 12 13 14 15 16 17 18 19 20 21 22 23 24 25 26 27 28 29 30 31 32 33 34 35 36 37 38 39 40 41 42 43 44 45 46 47 48 49 50 51 52 53 54 55 56 57 58 59 60 61 62 63 64 
  Anonymous Buffer size per walker 389
MEMORY increase 0 MB VMCSingleOMP::resetRun
====================================================
  SimpleFixedNodeBranch::finalize after a VMC block
    QMC counter        = 0
    time step          = 0.3
    reference energy   = -15.5481
    reference variance = 1.39979
====================================================
  Execution time = 5.8251505450e+00
</vmc>
<opt stage="setup">
  <log>
   Reading configurations from h5FileRoot O_q0_opt.s000
  QMCCostFunctionOMP is created with 64
   Loading configuration from MCWalkerConfiguration::SampleStack 
    number of walkers before load 64
  Using Nonlocal PP in Opt: NonLocalECP
    number of walkers after load: 10 10 10 10 10 10 10 10 10 10 10 10 10 10 10 10 10 10 10 10 10 10 10 10 10 10 10 10 10 10 10 10 10 10 10 10 10 10 10 10 10 10 10 10 10 10 10 10 10 10 10 10 10 10 10 10 10 10 10 10 10 10 10 10 
Using buffers for temporary storage in QMCCostFunction.

Memory usage: 
Linear method (approx matrix usage: 4*N^2): 3.2000000000e-03 MB
Deriv,HDerivRecord:      1.5360000000e-01 MB
Buffer memory cost:     MB/walker       MB/total 
Orbitals only:           1.6000000000e-04      1.0240000000e-01
Orbitals + dervs:        5.7600000000e-04      3.6864000000e-01
Inverse:                 0.0000000000e+00      0.0000000000e+00
Determinants:            0.0000000000e+00      0.0000000000e+00
  VMC Eavg = -1.5569392776e+01
  VMC Evar = 1.3644746067e+00
  Total weights = 2.0480000000e+04
  Execution time = 6.0812611250e-02
  </log>
</opt>
<opt stage="main" walkers="20480">
  <log>
Iteration: 1/1
od_largest 3.2458370007e+01
  stabilityBase -1.6000000000e+01
  stabilizerScale 2.0000000000e+00
  Using XS:-1.6000000000e+01 0 0
  Good Step. Largest LM parameter change:5.2772166952e-01
 OldCost: 1.3644746067e+00 NewCost: 1.1049104640e+00 Delta Cost:-2.5956414268e-01
      Current ene:     -1.5639604271e+01
      Current var:     1.1811924948e+00
      Current ene_urw:     -1.5591634207e+01
      Current var_urw: 1.1049104640e+00
Setting new Parameters
ERROR   Execution time = 5.9794144137e+00
  </log>
  <optVariables href="O_q0_opt.s000.opt.xml">
eO_0 -5.2772166952e-01 1 1  ON 0
eO_1 -4.3675669459e-01 1 1  ON 1
eO_2 -3.4687434678e-01 1 1  ON 2
eO_3 -2.5433247314e-01 1 1  ON 3
eO_4 -1.9135566446e-01 1 1  ON 4
eO_5 -1.3920838177e-01 1 1  ON 5
eO_6 -9.8878918317e-02 1 1  ON 6
eO_7 -7.6010923288e-02 1 1  ON 7
uu_b 3.4858880721e-01 0 1  ON 8
ud_b 6.3896468289e-01 0 1  ON 9
  </optVariables>
   Restore the number of walkers to 64, removing -54 walkers.
</opt>
</optimization-report>
  QMC Execution time = 5.9928253838e+00 secs 
  Reusing QMCFixedSampleLinearOptimize
 Using QMCCostFunctionOMP::QMCCostFunctionOMP

=========================================================
  Start QMCFixedSampleLinearOptimize
  File Root O_q0_opt.s001 append = no 
=========================================================
  Skip QMCDriver::putQMCInfo 
  Resetting Properties of the walkers 1 x 13

=========================================================
  Start VMCSingleOMP
  File Root O_q0_opt.s001 append = no 
=========================================================
Using existing walkers 
  Resetting Properties of the walkers 1 x 13

<vmc function="put">
  qmc_counter=1  my_counter=1
  time step      = 3.0000000000e-01
  blocks         = 200
  steps          = 1
  substeps       = 1
  current        = 0
  target samples = 2.0000000000e+04
  walkers/mpi    = 64

  stepsbetweensamples = 20
<parameter name="blocks" condition="int">200</parameter>
<parameter name="check_properties" condition="int">100</parameter>
<parameter name="checkproperties" condition="int">100</parameter>
<parameter name="current" condition="int">0</parameter>
<parameter name="dmcwalkersperthread" condition="real">1.0000000000e+01</parameter>
<parameter name="maxcpusecs" condition="real">3.6000000000e+05</parameter>
<parameter name="record_configs" condition="int">0</parameter>
<parameter name="record_walkers" condition="int">20</parameter>
<parameter name="recordconfigs" condition="int">0</parameter>
<parameter name="recordwalkers" condition="int">20</parameter>
<parameter name="rewind" condition="int">0</parameter>
<parameter name="samples" condition="real">2.0000000000e+04</parameter>
<parameter name="samplesperthread" condition="real">1.0000000000e+01</parameter>
<parameter name="steps" condition="int">1</parameter>
<parameter name="stepsbetweensamples" condition="int">20</parameter>
<parameter name="store_configs" condition="int">0</parameter>
<parameter name="storeconfigs" condition="int">0</parameter>
<parameter name="sub_steps" condition="int">1</parameter>
<parameter name="substeps" condition="int">1</parameter>
<parameter name="tau" condition="au">3.0000000000e-01</parameter>
<parameter name="time_step" condition="au">3.0000000000e-01</parameter>
<parameter name="timestep" condition="au">3.0000000000e-01</parameter>
<parameter name="use_drift" condition="string">yes</parameter>
<parameter name="usedrift" condition="string">yes</parameter>
<parameter name="walkers" condition="int">1</parameter>
<parameter name="warmup_steps" condition="int">50</parameter>
<parameter name="warmupsteps" condition="int">50</parameter>
  DumpConfig==false Nothing (configurations, state) will be saved.
  Walker Samples are dumped every 20 steps.
</vmc>

 TraceManager::put() 1
  traces requested          : 0
  method allows traces      : 0
  traces available          : 0


 TraceManager::put() 1
  traces requested          : 0
  method allows traces      : 0
  traces available          : 0

<optimization-report>
<vmc stage="main" blocks="200">
  Cannot make clones again. Use existing 64 clones
  Initial partition of walkers 0 1 2 3 4 5 6 7 8 9 10 11 12 13 14 15 16 17 18 19 20 21 22 23 24 25 26 27 28 29 30 31 32 33 34 35 36 37 38 39 40 41 42 43 44 45 46 47 48 49 50 51 52 53 54 55 56 57 58 59 60 61 62 63 64 
  Total Sample Size   =20480
  Walker distribution on root = 0 1 2 3 4 5 6 7 8 9 10 11 12 13 14 15 16 17 18 19 20 21 22 23 24 25 26 27 28 29 30 31 32 33 34 35 36 37 38 39 40 41 42 43 44 45 46 47 48 49 50 51 52 53 54 55 56 57 58 59 60 61 62 63 64 
====================================================
  SimpleFixedNodeBranch::finalize after a VMC block
    QMC counter        = 1
    time step          = 0.3
    reference energy   = -15.6091
    reference variance = 1.04577
====================================================
  Execution time = 5.6967361988e+00
</vmc>
<opt stage="setup">
  <log>
   Reading configurations from h5FileRoot O_q0_opt.s001
  QMCCostFunctionOMP is created with 64
   Loading configuration from MCWalkerConfiguration::SampleStack 
    number of walkers before load 64
  Using Nonlocal PP in Opt: NonLocalECP
    number of walkers after load: 10 10 10 10 10 10 10 10 10 10 10 10 10 10 10 10 10 10 10 10 10 10 10 10 10 10 10 10 10 10 10 10 10 10 10 10 10 10 10 10 10 10 10 10 10 10 10 10 10 10 10 10 10 10 10 10 10 10 10 10 10 10 10 10 
Using buffers for temporary storage in QMCCostFunction.

Memory usage: 
Linear method (approx matrix usage: 4*N^2): 3.2000000000e-03 MB
Deriv,HDerivRecord:      1.5360000000e-01 MB
Buffer memory cost:     MB/walker       MB/total 
Orbitals only:           1.6000000000e-04      1.0240000000e-01
Orbitals + dervs:        5.7600000000e-04      3.6864000000e-01
Inverse:                 0.0000000000e+00      0.0000000000e+00
Determinants:            0.0000000000e+00      0.0000000000e+00
  VMC Eavg = -1.5635611404e+01
  VMC Evar = 1.0690085060e+00
  Total weights = 2.0480000000e+04
  Execution time = 5.7216021250e-02
  </log>
</opt>
<opt stage="main" walkers="20480">
  <log>
Iteration: 1/1
od_largest 3.2480536905e+01
  stabilityBase -1.6000000000e+01
  stabilizerScale 1.2987094030e+00
  Using XS:-1.6000000000e+01 0 0
  Good Step. Largest LM parameter change:6.4247801169e-01
 OldCost: 1.0690085060e+00 NewCost: 8.3206148222e-01 Delta Cost:-2.3694702381e-01
      Current ene:     -1.5798038230e+01
      Current var:     8.5299851780e-01
      Current ene_urw:     -1.5705232614e+01
      Current var_urw: 8.3206148222e-01
Setting new Parameters
ERROR   Execution time = 5.8468421475e+00
  </log>
  <optVariables href="O_q0_opt.s001.opt.xml">
eO_0 -1.1701996812e+00 1 1  ON 0
eO_1 -1.0490747571e+00 1 1  ON 1
eO_2 -8.2402234074e-01 1 1  ON 2
eO_3 -5.8929478655e-01 1 1  ON 3
eO_4 -4.1702213864e-01 1 1  ON 4
eO_5 -3.0196177452e-01 1 1  ON 5
eO_6 -2.0869766017e-01 1 1  ON 6
eO_7 -1.5303725602e-01 1 1  ON 7
uu_b 2.5165604480e-01 0 1  ON 8
ud_b 4.9285735003e-01 0 1  ON 9
  </optVariables>
   Restore the number of walkers to 64, removing -54 walkers.
</opt>
</optimization-report>
  QMC Execution time = 5.8597045125e+00 secs 
  Reusing QMCFixedSampleLinearOptimize
 Using QMCCostFunctionOMP::QMCCostFunctionOMP

=========================================================
  Start QMCFixedSampleLinearOptimize
  File Root O_q0_opt.s002 append = no 
=========================================================
  Skip QMCDriver::putQMCInfo 
  Resetting Properties of the walkers 1 x 13

=========================================================
  Start VMCSingleOMP
  File Root O_q0_opt.s002 append = no 
=========================================================
Using existing walkers 
  Resetting Properties of the walkers 1 x 13

<vmc function="put">
  qmc_counter=2  my_counter=2
  time step      = 3.0000000000e-01
  blocks         = 200
  steps          = 1
  substeps       = 1
  current        = 0
  target samples = 2.0000000000e+04
  walkers/mpi    = 64

  stepsbetweensamples = 20
<parameter name="blocks" condition="int">200</parameter>
<parameter name="check_properties" condition="int">100</parameter>
<parameter name="checkproperties" condition="int">100</parameter>
<parameter name="current" condition="int">0</parameter>
<parameter name="dmcwalkersperthread" condition="real">1.0000000000e+01</parameter>
<parameter name="maxcpusecs" condition="real">3.6000000000e+05</parameter>
<parameter name="record_configs" condition="int">0</parameter>
<parameter name="record_walkers" condition="int">20</parameter>
<parameter name="recordconfigs" condition="int">0</parameter>
<parameter name="recordwalkers" condition="int">20</parameter>
<parameter name="rewind" condition="int">0</parameter>
<parameter name="samples" condition="real">2.0000000000e+04</parameter>
<parameter name="samplesperthread" condition="real">1.0000000000e+01</parameter>
<parameter name="steps" condition="int">1</parameter>
<parameter name="stepsbetweensamples" condition="int">20</parameter>
<parameter name="store_configs" condition="int">0</parameter>
<parameter name="storeconfigs" condition="int">0</parameter>
<parameter name="sub_steps" condition="int">1</parameter>
<parameter name="substeps" condition="int">1</parameter>
<parameter name="tau" condition="au">3.0000000000e-01</parameter>
<parameter name="time_step" condition="au">3.0000000000e-01</parameter>
<parameter name="timestep" condition="au">3.0000000000e-01</parameter>
<parameter name="use_drift" condition="string">yes</parameter>
<parameter name="usedrift" condition="string">yes</parameter>
<parameter name="walkers" condition="int">1</parameter>
<parameter name="warmup_steps" condition="int">50</parameter>
<parameter name="warmupsteps" condition="int">50</parameter>
  DumpConfig==false Nothing (configurations, state) will be saved.
  Walker Samples are dumped every 20 steps.
</vmc>

 TraceManager::put() 1
  traces requested          : 0
  method allows traces      : 0
  traces available          : 0


 TraceManager::put() 1
  traces requested          : 0
  method allows traces      : 0
  traces available          : 0

<optimization-report>
<vmc stage="main" blocks="200">
  Cannot make clones again. Use existing 64 clones
  Initial partition of walkers 0 1 2 3 4 5 6 7 8 9 10 11 12 13 14 15 16 17 18 19 20 21 22 23 24 25 26 27 28 29 30 31 32 33 34 35 36 37 38 39 40 41 42 43 44 45 46 47 48 49 50 51 52 53 54 55 56 57 58 59 60 61 62 63 64 
  Total Sample Size   =20480
  Walker distribution on root = 0 1 2 3 4 5 6 7 8 9 10 11 12 13 14 15 16 17 18 19 20 21 22 23 24 25 26 27 28 29 30 31 32 33 34 35 36 37 38 39 40 41 42 43 44 45 46 47 48 49 50 51 52 53 54 55 56 57 58 59 60 61 62 63 64 
====================================================
  SimpleFixedNodeBranch::finalize after a VMC block
    QMC counter        = 2
    time step          = 0.3
    reference energy   = -15.793
    reference variance = 0.88973
====================================================
  Execution time = 5.7029751475e+00
</vmc>
<opt stage="setup">
  <log>
   Reading configurations from h5FileRoot O_q0_opt.s002
  QMCCostFunctionOMP is created with 64
   Loading configuration from MCWalkerConfiguration::SampleStack 
    number of walkers before load 64
  Using Nonlocal PP in Opt: NonLocalECP
    number of walkers after load: 10 10 10 10 10 10 10 10 10 10 10 10 10 10 10 10 10 10 10 10 10 10 10 10 10 10 10 10 10 10 10 10 10 10 10 10 10 10 10 10 10 10 10 10 10 10 10 10 10 10 10 10 10 10 10 10 10 10 10 10 10 10 10 10 
Using buffers for temporary storage in QMCCostFunction.

Memory usage: 
Linear method (approx matrix usage: 4*N^2): 3.2000000000e-03 MB
Deriv,HDerivRecord:      1.5360000000e-01 MB
Buffer memory cost:     MB/walker       MB/total 
Orbitals only:           1.6000000000e-04      1.0240000000e-01
Orbitals + dervs:        5.7600000000e-04      3.6864000000e-01
Inverse:                 0.0000000000e+00      0.0000000000e+00
Determinants:            0.0000000000e+00      0.0000000000e+00
  VMC Eavg = -1.5798109179e+01
  VMC Evar = 7.8558402137e-01
  Total weights = 2.0480000000e+04
  Execution time = 5.6699608750e-02
  </log>
</opt>
<opt stage="main" walkers="20480">
  <log>
Iteration: 1/1
od_largest 2.6556542450e+01
  stabilityBase -1.6000000000e+01
  stabilizerScale 1.2852850758e+00
  Using XS:-1.6000000000e+01 0 0
  Good Step. Largest LM parameter change:9.2232230965e-02
 OldCost: 7.8558402137e-01 NewCost: 7.2478477600e-01 Delta Cost:-6.0799245374e-02
      Current ene:     -1.5837845012e+01
      Current var:     7.0631948443e-01
      Current ene_urw:     -1.5809847888e+01
      Current var_urw: 7.2478477600e-01
Setting new Parameters
ERROR   Execution time = 5.8586047425e+00
  </log>
  <optVariables href="O_q0_opt.s002.opt.xml">
eO_0 -1.1151415743e+00 1 1  ON 0
eO_1 -9.8264615407e-01 1 1  ON 1
eO_2 -8.1632785346e-01 1 1  ON 2
eO_3 -5.6208009210e-01 1 1  ON 3
eO_4 -3.6860457606e-01 1 1  ON 4
eO_5 -2.1412869921e-01 1 1  ON 5
eO_6 -1.5222137513e-01 1 1  ON 6
eO_7 -6.0805025053e-02 1 1  ON 7
uu_b 3.0215183036e-01 0 1  ON 8
ud_b 5.3833908088e-01 0 1  ON 9
  </optVariables>
   Restore the number of walkers to 64, removing -54 walkers.
</opt>
</optimization-report>
  QMC Execution time = 5.8715577812e+00 secs 
  Reusing QMCFixedSampleLinearOptimize
 Using QMCCostFunctionOMP::QMCCostFunctionOMP

=========================================================
  Start QMCFixedSampleLinearOptimize
  File Root O_q0_opt.s003 append = no 
=========================================================
  Skip QMCDriver::putQMCInfo 
  Resetting Properties of the walkers 1 x 13

=========================================================
  Start VMCSingleOMP
  File Root O_q0_opt.s003 append = no 
=========================================================
Using existing walkers 
  Resetting Properties of the walkers 1 x 13

<vmc function="put">
  qmc_counter=3  my_counter=3
  time step      = 3.0000000000e-01
  blocks         = 200
  steps          = 1
  substeps       = 1
  current        = 0
  target samples = 2.0000000000e+04
  walkers/mpi    = 64

  stepsbetweensamples = 20
<parameter name="blocks" condition="int">200</parameter>
<parameter name="check_properties" condition="int">100</parameter>
<parameter name="checkproperties" condition="int">100</parameter>
<parameter name="current" condition="int">0</parameter>
<parameter name="dmcwalkersperthread" condition="real">1.0000000000e+01</parameter>
<parameter name="maxcpusecs" condition="real">3.6000000000e+05</parameter>
<parameter name="record_configs" condition="int">0</parameter>
<parameter name="record_walkers" condition="int">20</parameter>
<parameter name="recordconfigs" condition="int">0</parameter>
<parameter name="recordwalkers" condition="int">20</parameter>
<parameter name="rewind" condition="int">0</parameter>
<parameter name="samples" condition="real">2.0000000000e+04</parameter>
<parameter name="samplesperthread" condition="real">1.0000000000e+01</parameter>
<parameter name="steps" condition="int">1</parameter>
<parameter name="stepsbetweensamples" condition="int">20</parameter>
<parameter name="store_configs" condition="int">0</parameter>
<parameter name="storeconfigs" condition="int">0</parameter>
<parameter name="sub_steps" condition="int">1</parameter>
<parameter name="substeps" condition="int">1</parameter>
<parameter name="tau" condition="au">3.0000000000e-01</parameter>
<parameter name="time_step" condition="au">3.0000000000e-01</parameter>
<parameter name="timestep" condition="au">3.0000000000e-01</parameter>
<parameter name="use_drift" condition="string">yes</parameter>
<parameter name="usedrift" condition="string">yes</parameter>
<parameter name="walkers" condition="int">1</parameter>
<parameter name="warmup_steps" condition="int">50</parameter>
<parameter name="warmupsteps" condition="int">50</parameter>
  DumpConfig==false Nothing (configurations, state) will be saved.
  Walker Samples are dumped every 20 steps.
</vmc>

 TraceManager::put() 1
  traces requested          : 0
  method allows traces      : 0
  traces available          : 0


 TraceManager::put() 1
  traces requested          : 0
  method allows traces      : 0
  traces available          : 0

<optimization-report>
<vmc stage="main" blocks="200">
  Cannot make clones again. Use existing 64 clones
  Initial partition of walkers 0 1 2 3 4 5 6 7 8 9 10 11 12 13 14 15 16 17 18 19 20 21 22 23 24 25 26 27 28 29 30 31 32 33 34 35 36 37 38 39 40 41 42 43 44 45 46 47 48 49 50 51 52 53 54 55 56 57 58 59 60 61 62 63 64 
  Total Sample Size   =20480
  Walker distribution on root = 0 1 2 3 4 5 6 7 8 9 10 11 12 13 14 15 16 17 18 19 20 21 22 23 24 25 26 27 28 29 30 31 32 33 34 35 36 37 38 39 40 41 42 43 44 45 46 47 48 49 50 51 52 53 54 55 56 57 58 59 60 61 62 63 64 
====================================================
  SimpleFixedNodeBranch::finalize after a VMC block
    QMC counter        = 3
    time step          = 0.3
    reference energy   = -15.8602
    reference variance = 0.858555
====================================================
  Execution time = 5.7045353550e+00
</vmc>
<opt stage="setup">
  <log>
   Reading configurations from h5FileRoot O_q0_opt.s003
  QMCCostFunctionOMP is created with 64
   Loading configuration from MCWalkerConfiguration::SampleStack 
    number of walkers before load 64
  Using Nonlocal PP in Opt: NonLocalECP
    number of walkers after load: 10 10 10 10 10 10 10 10 10 10 10 10 10 10 10 10 10 10 10 10 10 10 10 10 10 10 10 10 10 10 10 10 10 10 10 10 10 10 10 10 10 10 10 10 10 10 10 10 10 10 10 10 10 10 10 10 10 10 10 10 10 10 10 10 
Using buffers for temporary storage in QMCCostFunction.

Memory usage: 
Linear method (approx matrix usage: 4*N^2): 3.2000000000e-03 MB
Deriv,HDerivRecord:      1.5360000000e-01 MB
Buffer memory cost:     MB/walker       MB/total 
Orbitals only:           1.6000000000e-04      1.0240000000e-01
Orbitals + dervs:        5.7600000000e-04      3.6864000000e-01
Inverse:                 0.0000000000e+00      0.0000000000e+00
Determinants:            0.0000000000e+00      0.0000000000e+00
  VMC Eavg = -1.5841272425e+01
  VMC Evar = 7.3070322298e-01
  Total weights = 2.0480000000e+04
  Execution time = 6.1837926250e-02
  </log>
</opt>
<opt stage="main" walkers="20480">
  <log>
Iteration: 1/1
od_largest 2.2006294641e+01
  stabilityBase -1.6000000000e+01
  stabilizerScale 1.2727552355e+00
  Using XS:-1.6000000000e+01 0 0
  Good Step. Largest LM parameter change:4.9770562694e-02
 OldCost: 7.3070322298e-01 NewCost: 7.1655770805e-01 Delta Cost:-1.4145514926e-02
      Current ene:     -1.5846954030e+01
      Current var:     7.1574041762e-01
      Current ene_urw:     -1.5841969118e+01
      Current var_urw: 7.1655770805e-01
Setting new Parameters
ERROR   Execution time = 5.8675052675e+00
  </log>
  <optVariables href="O_q0_opt.s003.opt.xml">
eO_0 -1.1483330878e+00 1 1  ON 0
eO_1 -1.0324167168e+00 1 1  ON 1
eO_2 -8.4284335133e-01 1 1  ON 2
eO_3 -6.0542781236e-01 1 1  ON 3
eO_4 -3.9288493008e-01 1 1  ON 4
eO_5 -2.4122276404e-01 1 1  ON 5
eO_6 -1.4403400595e-01 1 1  ON 6
eO_7 -7.6449223682e-02 1 1  ON 7
uu_b 3.0070641775e-01 0 1  ON 8
ud_b 5.3885097971e-01 0 1  ON 9
  </optVariables>
   Restore the number of walkers to 64, removing -54 walkers.
</opt>
</optimization-report>
  QMC Execution time = 5.8806113900e+00 secs 
  Reusing QMCFixedSampleLinearOptimize
 Using QMCCostFunctionOMP::QMCCostFunctionOMP

=========================================================
  Start QMCFixedSampleLinearOptimize
  File Root O_q0_opt.s004 append = no 
=========================================================
  Skip QMCDriver::putQMCInfo 
  Resetting Properties of the walkers 1 x 13

=========================================================
  Start VMCSingleOMP
  File Root O_q0_opt.s004 append = no 
=========================================================
Using existing walkers 
  Resetting Properties of the walkers 1 x 13

<vmc function="put">
  qmc_counter=4  my_counter=4
  time step      = 3.0000000000e-01
  blocks         = 200
  steps          = 1
  substeps       = 1
  current        = 0
  target samples = 2.0000000000e+04
  walkers/mpi    = 64

  stepsbetweensamples = 20
<parameter name="blocks" condition="int">200</parameter>
<parameter name="check_properties" condition="int">100</parameter>
<parameter name="checkproperties" condition="int">100</parameter>
<parameter name="current" condition="int">0</parameter>
<parameter name="dmcwalkersperthread" condition="real">1.0000000000e+01</parameter>
<parameter name="maxcpusecs" condition="real">3.6000000000e+05</parameter>
<parameter name="record_configs" condition="int">0</parameter>
<parameter name="record_walkers" condition="int">20</parameter>
<parameter name="recordconfigs" condition="int">0</parameter>
<parameter name="recordwalkers" condition="int">20</parameter>
<parameter name="rewind" condition="int">0</parameter>
<parameter name="samples" condition="real">2.0000000000e+04</parameter>
<parameter name="samplesperthread" condition="real">1.0000000000e+01</parameter>
<parameter name="steps" condition="int">1</parameter>
<parameter name="stepsbetweensamples" condition="int">20</parameter>
<parameter name="store_configs" condition="int">0</parameter>
<parameter name="storeconfigs" condition="int">0</parameter>
<parameter name="sub_steps" condition="int">1</parameter>
<parameter name="substeps" condition="int">1</parameter>
<parameter name="tau" condition="au">3.0000000000e-01</parameter>
<parameter name="time_step" condition="au">3.0000000000e-01</parameter>
<parameter name="timestep" condition="au">3.0000000000e-01</parameter>
<parameter name="use_drift" condition="string">yes</parameter>
<parameter name="usedrift" condition="string">yes</parameter>
<parameter name="walkers" condition="int">1</parameter>
<parameter name="warmup_steps" condition="int">50</parameter>
<parameter name="warmupsteps" condition="int">50</parameter>
  DumpConfig==false Nothing (configurations, state) will be saved.
  Walker Samples are dumped every 20 steps.
</vmc>

 TraceManager::put() 1
  traces requested          : 0
  method allows traces      : 0
  traces available          : 0


 TraceManager::put() 1
  traces requested          : 0
  method allows traces      : 0
  traces available          : 0

<optimization-report>
<vmc stage="main" blocks="200">
  Cannot make clones again. Use existing 64 clones
  Initial partition of walkers 0 1 2 3 4 5 6 7 8 9 10 11 12 13 14 15 16 17 18 19 20 21 22 23 24 25 26 27 28 29 30 31 32 33 34 35 36 37 38 39 40 41 42 43 44 45 46 47 48 49 50 51 52 53 54 55 56 57 58 59 60 61 62 63 64 
  Total Sample Size   =20480
  Walker distribution on root = 0 1 2 3 4 5 6 7 8 9 10 11 12 13 14 15 16 17 18 19 20 21 22 23 24 25 26 27 28 29 30 31 32 33 34 35 36 37 38 39 40 41 42 43 44 45 46 47 48 49 50 51 52 53 54 55 56 57 58 59 60 61 62 63 64 
====================================================
  SimpleFixedNodeBranch::finalize after a VMC block
    QMC counter        = 4
    time step          = 0.3
    reference energy   = -15.8521
    reference variance = 1.82612
====================================================
  Execution time = 5.7105152325e+00
</vmc>
<opt stage="setup">
  <log>
   Reading configurations from h5FileRoot O_q0_opt.s004
  QMCCostFunctionOMP is created with 64
   Loading configuration from MCWalkerConfiguration::SampleStack 
    number of walkers before load 64
  Using Nonlocal PP in Opt: NonLocalECP
    number of walkers after load: 10 10 10 10 10 10 10 10 10 10 10 10 10 10 10 10 10 10 10 10 10 10 10 10 10 10 10 10 10 10 10 10 10 10 10 10 10 10 10 10 10 10 10 10 10 10 10 10 10 10 10 10 10 10 10 10 10 10 10 10 10 10 10 10 
Using buffers for temporary storage in QMCCostFunction.

Memory usage: 
Linear method (approx matrix usage: 4*N^2): 3.2000000000e-03 MB
Deriv,HDerivRecord:      1.5360000000e-01 MB
Buffer memory cost:     MB/walker       MB/total 
Orbitals only:           1.6000000000e-04      1.0240000000e-01
Orbitals + dervs:        5.7600000000e-04      3.6864000000e-01
Inverse:                 0.0000000000e+00      0.0000000000e+00
Determinants:            0.0000000000e+00      0.0000000000e+00
  VMC Eavg = -1.5843207263e+01
  VMC Evar = 1.2184771084e+00
  Total weights = 2.0480000000e+04
  Execution time = 5.7200471250e-02
  </log>
</opt>
<opt stage="main" walkers="20480">
  <log>
Iteration: 1/1
od_largest 3.1616314036e+01
  stabilityBase -1.6000000000e+01
  stabilizerScale 1.2969115503e+00
  Using XS:-1.6000000000e+01 0 0
  Good Step. Largest LM parameter change:2.0026694624e-01
 OldCost: 1.2184771084e+00 NewCost: 1.1923197177e+00 Delta Cost:-2.6157390699e-02
      Current ene:     -1.5848667427e+01
      Current var:     9.4320657557e-01
      Current ene_urw:     -1.5846280879e+01
      Current var_urw: 1.1923197177e+00
Setting new Parameters
ERROR   Execution time = 5.8700350687e+00
  </log>
  <optVariables href="O_q0_opt.s004.opt.xml">
eO_0 -9.4806614155e-01 1 1  ON 0
eO_1 -8.3743016162e-01 1 1  ON 1
eO_2 -6.8147837208e-01 1 1  ON 2
eO_3 -4.8611659655e-01 1 1  ON 3
eO_4 -3.2058048039e-01 1 1  ON 4
eO_5 -1.9063721896e-01 1 1  ON 5
eO_6 -1.2736216464e-01 1 1  ON 6
eO_7 -9.4569594201e-02 1 1  ON 7
uu_b 4.2358001999e-01 0 1  ON 8
ud_b 6.3843447479e-01 0 1  ON 9
  </optVariables>
   Restore the number of walkers to 64, removing -54 walkers.
</opt>
</optimization-report>
  QMC Execution time = 5.8839923438e+00 secs 
  Reusing QMCFixedSampleLinearOptimize
 Using QMCCostFunctionOMP::QMCCostFunctionOMP

=========================================================
  Start QMCFixedSampleLinearOptimize
  File Root O_q0_opt.s005 append = no 
=========================================================
  Skip QMCDriver::putQMCInfo 
  Resetting Properties of the walkers 1 x 13

=========================================================
  Start VMCSingleOMP
  File Root O_q0_opt.s005 append = no 
=========================================================
Using existing walkers 
  Resetting Properties of the walkers 1 x 13

<vmc function="put">
  qmc_counter=5  my_counter=5
  time step      = 3.0000000000e-01
  blocks         = 200
  steps          = 1
  substeps       = 1
  current        = 0
  target samples = 2.0000000000e+04
  walkers/mpi    = 64

  stepsbetweensamples = 20
<parameter name="blocks" condition="int">200</parameter>
<parameter name="check_properties" condition="int">100</parameter>
<parameter name="checkproperties" condition="int">100</parameter>
<parameter name="current" condition="int">0</parameter>
<parameter name="dmcwalkersperthread" condition="real">1.0000000000e+01</parameter>
<parameter name="maxcpusecs" condition="real">3.6000000000e+05</parameter>
<parameter name="record_configs" condition="int">0</parameter>
<parameter name="record_walkers" condition="int">20</parameter>
<parameter name="recordconfigs" condition="int">0</parameter>
<parameter name="recordwalkers" condition="int">20</parameter>
<parameter name="rewind" condition="int">0</parameter>
<parameter name="samples" condition="real">2.0000000000e+04</parameter>
<parameter name="samplesperthread" condition="real">1.0000000000e+01</parameter>
<parameter name="steps" condition="int">1</parameter>
<parameter name="stepsbetweensamples" condition="int">20</parameter>
<parameter name="store_configs" condition="int">0</parameter>
<parameter name="storeconfigs" condition="int">0</parameter>
<parameter name="sub_steps" condition="int">1</parameter>
<parameter name="substeps" condition="int">1</parameter>
<parameter name="tau" condition="au">3.0000000000e-01</parameter>
<parameter name="time_step" condition="au">3.0000000000e-01</parameter>
<parameter name="timestep" condition="au">3.0000000000e-01</parameter>
<parameter name="use_drift" condition="string">yes</parameter>
<parameter name="usedrift" condition="string">yes</parameter>
<parameter name="walkers" condition="int">1</parameter>
<parameter name="warmup_steps" condition="int">50</parameter>
<parameter name="warmupsteps" condition="int">50</parameter>
  DumpConfig==false Nothing (configurations, state) will be saved.
  Walker Samples are dumped every 20 steps.
</vmc>

 TraceManager::put() 1
  traces requested          : 0
  method allows traces      : 0
  traces available          : 0


 TraceManager::put() 1
  traces requested          : 0
  method allows traces      : 0
  traces available          : 0

<optimization-report>
<vmc stage="main" blocks="200">
  Cannot make clones again. Use existing 64 clones
  Initial partition of walkers 0 1 2 3 4 5 6 7 8 9 10 11 12 13 14 15 16 17 18 19 20 21 22 23 24 25 26 27 28 29 30 31 32 33 34 35 36 37 38 39 40 41 42 43 44 45 46 47 48 49 50 51 52 53 54 55 56 57 58 59 60 61 62 63 64 
  Total Sample Size   =20480
  Walker distribution on root = 0 1 2 3 4 5 6 7 8 9 10 11 12 13 14 15 16 17 18 19 20 21 22 23 24 25 26 27 28 29 30 31 32 33 34 35 36 37 38 39 40 41 42 43 44 45 46 47 48 49 50 51 52 53 54 55 56 57 58 59 60 61 62 63 64 
====================================================
  SimpleFixedNodeBranch::finalize after a VMC block
    QMC counter        = 5
    time step          = 0.3
    reference energy   = -15.8403
    reference variance = 0.842945
====================================================
  Execution time = 5.7048649775e+00
</vmc>
<opt stage="setup">
  <log>
   Reading configurations from h5FileRoot O_q0_opt.s005
  QMCCostFunctionOMP is created with 64
   Loading configuration from MCWalkerConfiguration::SampleStack 
    number of walkers before load 64
  Using Nonlocal PP in Opt: NonLocalECP
    number of walkers after load: 10 10 10 10 10 10 10 10 10 10 10 10 10 10 10 10 10 10 10 10 10 10 10 10 10 10 10 10 10 10 10 10 10 10 10 10 10 10 10 10 10 10 10 10 10 10 10 10 10 10 10 10 10 10 10 10 10 10 10 10 10 10 10 10 
Using buffers for temporary storage in QMCCostFunction.

Memory usage: 
Linear method (approx matrix usage: 4*N^2): 3.2000000000e-03 MB
Deriv,HDerivRecord:      1.5360000000e-01 MB
Buffer memory cost:     MB/walker       MB/total 
Orbitals only:           1.6000000000e-04      1.0240000000e-01
Orbitals + dervs:        5.7600000000e-04      3.6864000000e-01
Inverse:                 0.0000000000e+00      0.0000000000e+00
Determinants:            0.0000000000e+00      0.0000000000e+00
  VMC Eavg = -1.5843012016e+01
  VMC Evar = 6.8740347812e-01
  Total weights = 2.0480000000e+04
  Execution time = 5.8009011250e-02
  </log>
</opt>
<opt stage="main" walkers="20480">
  <log>
Iteration: 1/1
od_largest 2.5856332661e+01
  stabilityBase -1.6000000000e+01
  stabilizerScale 1.2835037032e+00
  Using XS:-1.6000000000e+01 0 0
  Good Step. Largest LM parameter change:1.5993252003e-02
 OldCost: 6.8740347812e-01 NewCost: 6.8733036689e-01 Delta Cost:-7.3111228164e-05
      Current ene:     -1.5843655505e+01
      Current var:     6.8688470454e-01
      Current ene_urw:     -1.5842966331e+01
      Current var_urw: 6.8733036689e-01
Setting new Parameters
ERROR   Execution time = 5.8627826137e+00
  </log>
  <optVariables href="O_q0_opt.s005.opt.xml">
eO_0 -9.6343752322e-01 1 1  ON 0
eO_1 -8.5342341362e-01 1 1  ON 1
eO_2 -6.9540375912e-01 1 1  ON 2
eO_3 -4.9789861249e-01 1 1  ON 3
eO_4 -3.2971914244e-01 1 1  ON 4
eO_5 -1.9776034994e-01 1 1  ON 5
eO_6 -1.3037507921e-01 1 1  ON 6
eO_7 -9.5869254547e-02 1 1  ON 7
uu_b 4.1713377545e-01 0 1  ON 8
ud_b 6.3321799797e-01 0 1  ON 9
  </optVariables>
   Restore the number of walkers to 64, removing -54 walkers.
</opt>
</optimization-report>
  QMC Execution time = 5.8797359875e+00 secs 
  Reusing QMCFixedSampleLinearOptimize
 Using QMCCostFunctionOMP::QMCCostFunctionOMP

=========================================================
  Start QMCFixedSampleLinearOptimize
  File Root O_q0_opt.s006 append = no 
=========================================================
  Skip QMCDriver::putQMCInfo 
  Resetting Properties of the walkers 1 x 13

=========================================================
  Start VMCSingleOMP
  File Root O_q0_opt.s006 append = no 
=========================================================
Using existing walkers 
  Resetting Properties of the walkers 1 x 13

<vmc function="put">
  qmc_counter=6  my_counter=6
  time step      = 3.0000000000e-01
  blocks         = 200
  steps          = 1
  substeps       = 1
  current        = 0
  target samples = 2.0000000000e+04
  walkers/mpi    = 64

  stepsbetweensamples = 20
<parameter name="blocks" condition="int">200</parameter>
<parameter name="check_properties" condition="int">100</parameter>
<parameter name="checkproperties" condition="int">100</parameter>
<parameter name="current" condition="int">0</parameter>
<parameter name="dmcwalkersperthread" condition="real">1.0000000000e+01</parameter>
<parameter name="maxcpusecs" condition="real">3.6000000000e+05</parameter>
<parameter name="record_configs" condition="int">0</parameter>
<parameter name="record_walkers" condition="int">20</parameter>
<parameter name="recordconfigs" condition="int">0</parameter>
<parameter name="recordwalkers" condition="int">20</parameter>
<parameter name="rewind" condition="int">0</parameter>
<parameter name="samples" condition="real">2.0000000000e+04</parameter>
<parameter name="samplesperthread" condition="real">1.0000000000e+01</parameter>
<parameter name="steps" condition="int">1</parameter>
<parameter name="stepsbetweensamples" condition="int">20</parameter>
<parameter name="store_configs" condition="int">0</parameter>
<parameter name="storeconfigs" condition="int">0</parameter>
<parameter name="sub_steps" condition="int">1</parameter>
<parameter name="substeps" condition="int">1</parameter>
<parameter name="tau" condition="au">3.0000000000e-01</parameter>
<parameter name="time_step" condition="au">3.0000000000e-01</parameter>
<parameter name="timestep" condition="au">3.0000000000e-01</parameter>
<parameter name="use_drift" condition="string">yes</parameter>
<parameter name="usedrift" condition="string">yes</parameter>
<parameter name="walkers" condition="int">1</parameter>
<parameter name="warmup_steps" condition="int">50</parameter>
<parameter name="warmupsteps" condition="int">50</parameter>
  DumpConfig==false Nothing (configurations, state) will be saved.
  Walker Samples are dumped every 20 steps.
</vmc>

 TraceManager::put() 1
  traces requested          : 0
  method allows traces      : 0
  traces available          : 0


 TraceManager::put() 1
  traces requested          : 0
  method allows traces      : 0
  traces available          : 0

<optimization-report>
<vmc stage="main" blocks="200">
  Cannot make clones again. Use existing 64 clones
  Initial partition of walkers 0 1 2 3 4 5 6 7 8 9 10 11 12 13 14 15 16 17 18 19 20 21 22 23 24 25 26 27 28 29 30 31 32 33 34 35 36 37 38 39 40 41 42 43 44 45 46 47 48 49 50 51 52 53 54 55 56 57 58 59 60 61 62 63 64 
  Total Sample Size   =20480
  Walker distribution on root = 0 1 2 3 4 5 6 7 8 9 10 11 12 13 14 15 16 17 18 19 20 21 22 23 24 25 26 27 28 29 30 31 32 33 34 35 36 37 38 39 40 41 42 43 44 45 46 47 48 49 50 51 52 53 54 55 56 57 58 59 60 61 62 63 64 
====================================================
  SimpleFixedNodeBranch::finalize after a VMC block
    QMC counter        = 6
    time step          = 0.3
    reference energy   = -15.8679
    reference variance = 0.84692
====================================================
  Execution time = 5.7088882350e+00
</vmc>
<opt stage="setup">
  <log>
   Reading configurations from h5FileRoot O_q0_opt.s006
  QMCCostFunctionOMP is created with 64
   Loading configuration from MCWalkerConfiguration::SampleStack 
    number of walkers before load 64
  Using Nonlocal PP in Opt: NonLocalECP
    number of walkers after load: 10 10 10 10 10 10 10 10 10 10 10 10 10 10 10 10 10 10 10 10 10 10 10 10 10 10 10 10 10 10 10 10 10 10 10 10 10 10 10 10 10 10 10 10 10 10 10 10 10 10 10 10 10 10 10 10 10 10 10 10 10 10 10 10 
Using buffers for temporary storage in QMCCostFunction.

Memory usage: 
Linear method (approx matrix usage: 4*N^2): 3.2000000000e-03 MB
Deriv,HDerivRecord:      1.5360000000e-01 MB
Buffer memory cost:     MB/walker       MB/total 
Orbitals only:           1.6000000000e-04      1.0240000000e-01
Orbitals + dervs:        5.7600000000e-04      3.6864000000e-01
Inverse:                 0.0000000000e+00      0.0000000000e+00
Determinants:            0.0000000000e+00      0.0000000000e+00
  VMC Eavg = -1.5849064977e+01
  VMC Evar = 6.9683928634e-01
  Total weights = 2.0480000000e+04
  Execution time = 5.8269631250e-02
  </log>
</opt>
<opt stage="main" walkers="20480">
  <log>
Iteration: 1/1
od_largest 2.6948752965e+01
  stabilityBase -1.6000000000e+01
  stabilizerScale 1.2862624683e+00
  Using XS:-1.6000000000e+01 0 0
  Good Step. Largest LM parameter change:9.6316519175e-03
 OldCost: 6.9683928634e-01 NewCost: 6.9681780340e-01 Delta Cost:-2.1482934426e-05
      Current ene:     -1.5848644266e+01
      Current var:     6.9715306123e-01
      Current ene_urw:     -1.5849058843e+01
      Current var_urw: 6.9681780340e-01
Setting new Parameters
ERROR   Execution time = 5.8723484513e+00
  </log>
  <optVariables href="O_q0_opt.s006.opt.xml">
eO_0 -9.5395711514e-01 1 1  ON 0
eO_1 -8.4379176170e-01 1 1  ON 1
eO_2 -6.8677681293e-01 1 1  ON 2
eO_3 -4.9063875078e-01 1 1  ON 3
eO_4 -3.2380695261e-01 1 1  ON 4
eO_5 -1.9327110306e-01 1 1  ON 5
eO_6 -1.2822508899e-01 1 1  ON 6
eO_7 -9.4537175789e-02 1 1  ON 7
uu_b 4.2084287140e-01 0 1  ON 8
ud_b 6.3632135800e-01 0 1  ON 9
  </optVariables>
   Restore the number of walkers to 64, removing -54 walkers.
</opt>
</optimization-report>
  QMC Execution time = 5.8854641288e+00 secs 
  Reusing QMCFixedSampleLinearOptimize
 Using QMCCostFunctionOMP::QMCCostFunctionOMP

=========================================================
  Start QMCFixedSampleLinearOptimize
  File Root O_q0_opt.s007 append = no 
=========================================================
  Skip QMCDriver::putQMCInfo 
  Resetting Properties of the walkers 1 x 13

=========================================================
  Start VMCSingleOMP
  File Root O_q0_opt.s007 append = no 
=========================================================
Using existing walkers 
  Resetting Properties of the walkers 1 x 13

<vmc function="put">
  qmc_counter=7  my_counter=7
  time step      = 3.0000000000e-01
  blocks         = 200
  steps          = 1
  substeps       = 1
  current        = 0
  target samples = 2.0000000000e+04
  walkers/mpi    = 64

  stepsbetweensamples = 20
<parameter name="blocks" condition="int">200</parameter>
<parameter name="check_properties" condition="int">100</parameter>
<parameter name="checkproperties" condition="int">100</parameter>
<parameter name="current" condition="int">0</parameter>
<parameter name="dmcwalkersperthread" condition="real">1.0000000000e+01</parameter>
<parameter name="maxcpusecs" condition="real">3.6000000000e+05</parameter>
<parameter name="record_configs" condition="int">0</parameter>
<parameter name="record_walkers" condition="int">20</parameter>
<parameter name="recordconfigs" condition="int">0</parameter>
<parameter name="recordwalkers" condition="int">20</parameter>
<parameter name="rewind" condition="int">0</parameter>
<parameter name="samples" condition="real">2.0000000000e+04</parameter>
<parameter name="samplesperthread" condition="real">1.0000000000e+01</parameter>
<parameter name="steps" condition="int">1</parameter>
<parameter name="stepsbetweensamples" condition="int">20</parameter>
<parameter name="store_configs" condition="int">0</parameter>
<parameter name="storeconfigs" condition="int">0</parameter>
<parameter name="sub_steps" condition="int">1</parameter>
<parameter name="substeps" condition="int">1</parameter>
<parameter name="tau" condition="au">3.0000000000e-01</parameter>
<parameter name="time_step" condition="au">3.0000000000e-01</parameter>
<parameter name="timestep" condition="au">3.0000000000e-01</parameter>
<parameter name="use_drift" condition="string">yes</parameter>
<parameter name="usedrift" condition="string">yes</parameter>
<parameter name="walkers" condition="int">1</parameter>
<parameter name="warmup_steps" condition="int">50</parameter>
<parameter name="warmupsteps" condition="int">50</parameter>
  DumpConfig==false Nothing (configurations, state) will be saved.
  Walker Samples are dumped every 20 steps.
</vmc>

 TraceManager::put() 1
  traces requested          : 0
  method allows traces      : 0
  traces available          : 0


 TraceManager::put() 1
  traces requested          : 0
  method allows traces      : 0
  traces available          : 0

<optimization-report>
<vmc stage="main" blocks="200">
  Cannot make clones again. Use existing 64 clones
  Initial partition of walkers 0 1 2 3 4 5 6 7 8 9 10 11 12 13 14 15 16 17 18 19 20 21 22 23 24 25 26 27 28 29 30 31 32 33 34 35 36 37 38 39 40 41 42 43 44 45 46 47 48 49 50 51 52 53 54 55 56 57 58 59 60 61 62 63 64 
  Total Sample Size   =20480
  Walker distribution on root = 0 1 2 3 4 5 6 7 8 9 10 11 12 13 14 15 16 17 18 19 20 21 22 23 24 25 26 27 28 29 30 31 32 33 34 35 36 37 38 39 40 41 42 43 44 45 46 47 48 49 50 51 52 53 54 55 56 57 58 59 60 61 62 63 64 
====================================================
  SimpleFixedNodeBranch::finalize after a VMC block
    QMC counter        = 7
    time step          = 0.3
    reference energy   = -15.8689
    reference variance = 0.802775
====================================================
  Execution time = 5.7064737813e+00
</vmc>
<opt stage="setup">
  <log>
   Reading configurations from h5FileRoot O_q0_opt.s007
  QMCCostFunctionOMP is created with 64
   Loading configuration from MCWalkerConfiguration::SampleStack 
    number of walkers before load 64
  Using Nonlocal PP in Opt: NonLocalECP
    number of walkers after load: 10 10 10 10 10 10 10 10 10 10 10 10 10 10 10 10 10 10 10 10 10 10 10 10 10 10 10 10 10 10 10 10 10 10 10 10 10 10 10 10 10 10 10 10 10 10 10 10 10 10 10 10 10 10 10 10 10 10 10 10 10 10 10 10 
Using buffers for temporary storage in QMCCostFunction.

Memory usage: 
Linear method (approx matrix usage: 4*N^2): 3.2000000000e-03 MB
Deriv,HDerivRecord:      1.5360000000e-01 MB
Buffer memory cost:     MB/walker       MB/total 
Orbitals only:           1.6000000000e-04      1.0240000000e-01
Orbitals + dervs:        5.7600000000e-04      3.6864000000e-01
Inverse:                 0.0000000000e+00      0.0000000000e+00
Determinants:            0.0000000000e+00      0.0000000000e+00
  VMC Eavg = -1.5857758350e+01
  VMC Evar = 6.7982953532e-01
  Total weights = 2.0480000000e+04
  Execution time = 5.4467722500e-02
  </log>
</opt>
<opt stage="main" walkers="20480">
  <log>
Iteration: 1/1
od_largest 2.7747051129e+01
  stabilityBase -1.6000000000e+01
  stabilizerScale 1.2882086379e+00
  Using XS:-1.6000000000e+01 0 0
  Good Step. Largest LM parameter change:4.1709562649e-04
 OldCost: 6.7982953532e-01 NewCost: 6.7982948866e-01 Delta Cost:-4.6667065545e-08
      Current ene:     -1.5857741659e+01
      Current var:     6.7984042938e-01
      Current ene_urw:     -1.5857759875e+01
      Current var_urw: 6.7982948866e-01
Setting new Parameters
ERROR   Execution time = 5.8621112188e+00
  </log>
  <optVariables href="O_q0_opt.s007.opt.xml">
eO_0 -9.5355335048e-01 1 1  ON 0
eO_1 -8.4337466608e-01 1 1  ON 1
eO_2 -6.8641405257e-01 1 1  ON 2
eO_3 -4.9032841131e-01 1 1  ON 3
eO_4 -3.2356463362e-01 1 1  ON 4
eO_5 -1.9307867987e-01 1 1  ON 5
eO_6 -1.2813718961e-01 1 1  ON 6
eO_7 -9.4524769324e-02 1 1  ON 7
uu_b 4.2101751522e-01 0 1  ON 8
ud_b 6.3644522750e-01 0 1  ON 9
  </optVariables>
   Restore the number of walkers to 64, removing -54 walkers.
</opt>
</optimization-report>
  QMC Execution time = 5.8749018662e+00 secs 
Loop execution max-interations = 4
  Reusing QMCFixedSampleLinearOptimize
 Using QMCCostFunctionOMP::QMCCostFunctionOMP

=========================================================
  Start QMCFixedSampleLinearOptimize
  File Root O_q0_opt.s008 append = no 
=========================================================
  Skip QMCDriver::putQMCInfo 
  Resetting Properties of the walkers 1 x 13

=========================================================
  Start VMCSingleOMP
  File Root O_q0_opt.s008 append = no 
=========================================================
  Using the current 64 walkers.
  Total number of walkers: 2.0480000000e+03
  Total weight: 2.0480000000e+03
  Resetting Properties of the walkers 1 x 13

<vmc function="put">
  qmc_counter=0  my_counter=8
  time step      = 3.0000000000e-01
  blocks         = 200
  steps          = 4
  substeps       = 1
  current        = 0
  target samples = 8.0000000000e+04
  walkers/mpi    = 64

  stepsbetweensamples = 20
<parameter name="blocks" condition="int">200</parameter>
<parameter name="check_properties" condition="int">100</parameter>
<parameter name="checkproperties" condition="int">100</parameter>
<parameter name="current" condition="int">0</parameter>
<parameter name="dmcwalkersperthread" condition="real">4.0000000000e+01</parameter>
<parameter name="maxcpusecs" condition="real">3.6000000000e+05</parameter>
<parameter name="record_configs" condition="int">0</parameter>
<parameter name="record_walkers" condition="int">20</parameter>
<parameter name="recordconfigs" condition="int">0</parameter>
<parameter name="recordwalkers" condition="int">20</parameter>
<parameter name="rewind" condition="int">0</parameter>
<parameter name="samples" condition="real">8.0000000000e+04</parameter>
<parameter name="samplesperthread" condition="real">4.0000000000e+01</parameter>
<parameter name="steps" condition="int">4</parameter>
<parameter name="stepsbetweensamples" condition="int">20</parameter>
<parameter name="store_configs" condition="int">0</parameter>
<parameter name="storeconfigs" condition="int">0</parameter>
<parameter name="sub_steps" condition="int">1</parameter>
<parameter name="substeps" condition="int">1</parameter>
<parameter name="tau" condition="au">3.0000000000e-01</parameter>
<parameter name="time_step" condition="au">3.0000000000e-01</parameter>
<parameter name="timestep" condition="au">3.0000000000e-01</parameter>
<parameter name="use_drift" condition="string">yes</parameter>
<parameter name="usedrift" condition="string">yes</parameter>
<parameter name="walkers" condition="int">64</parameter>
<parameter name="warmup_steps" condition="int">50</parameter>
<parameter name="warmupsteps" condition="int">50</parameter>
  DumpConfig==false Nothing (configurations, state) will be saved.
  Walker Samples are dumped every 20 steps.
</vmc>

 TraceManager::put() 1
  traces requested          : 0
  method allows traces      : 0
  traces available          : 0


 TraceManager::put() 1
  traces requested          : 0
  method allows traces      : 0
  traces available          : 0

<optimization-report>
<vmc stage="main" blocks="200">
  Cannot make clones again. Use existing 64 clones
  Initial partition of walkers 0 1 2 3 4 5 6 7 8 9 10 11 12 13 14 15 16 17 18 19 20 21 22 23 24 25 26 27 28 29 30 31 32 33 34 35 36 37 38 39 40 41 42 43 44 45 46 47 48 49 50 51 52 53 54 55 56 57 58 59 60 61 62 63 64 
  Total Sample Size   =81920
  Walker distribution on root = 0 1 2 3 4 5 6 7 8 9 10 11 12 13 14 15 16 17 18 19 20 21 22 23 24 25 26 27 28 29 30 31 32 33 34 35 36 37 38 39 40 41 42 43 44 45 46 47 48 49 50 51 52 53 54 55 56 57 58 59 60 61 62 63 64 
====================================================
  SimpleFixedNodeBranch::finalize after a VMC block
    QMC counter        = 8
    time step          = 0.3
    reference energy   = -15.8617
    reference variance = 0.80969
====================================================
  Execution time = 6.4371037412e+00
</vmc>
<opt stage="setup">
  <log>
   Reading configurations from h5FileRoot O_q0_opt.s008
  QMCCostFunctionOMP is created with 64
   Loading configuration from MCWalkerConfiguration::SampleStack 
    number of walkers before load 64
  Using Nonlocal PP in Opt: NonLocalECP
    number of walkers after load: 40 40 40 40 40 40 40 40 40 40 40 40 40 40 40 40 40 40 40 40 40 40 40 40 40 40 40 40 40 40 40 40 40 40 40 40 40 40 40 40 40 40 40 40 40 40 40 40 40 40 40 40 40 40 40 40 40 40 40 40 40 40 40 40 
Using buffers for temporary storage in QMCCostFunction.

Memory usage: 
Linear method (approx matrix usage: 4*N^2): 3.2000000000e-03 MB
Deriv,HDerivRecord:      6.1440000000e-01 MB
Buffer memory cost:     MB/walker       MB/total 
Orbitals only:           1.6000000000e-04      4.0960000000e-01
Orbitals + dervs:        5.7600000000e-04      1.4745600000e+00
Inverse:                 0.0000000000e+00      0.0000000000e+00
Determinants:            0.0000000000e+00      0.0000000000e+00
  VMC Eavg = -1.5853915482e+01
  VMC Evar = 6.8674328187e-01
  Total weights = 8.1920000000e+04
  Execution time = 2.4780028625e-01
  </log>
</opt>
<opt stage="main" walkers="81920">
  <log>
Iteration: 1/1
od_largest 2.6198702395e+01
  stabilityBase -1.6000000000e+01
  stabilizerScale 1.2843806588e+00
  Using XS:-1.6000000000e+01 0 0
  Good Step. Largest LM parameter change:1.2356111326e-04
 OldCost: 6.8674328187e-01 NewCost: 6.8674327833e-01 Delta Cost:-3.5391565234e-09
      Current ene:     -1.5853909981e+01
      Current var:     6.8674577667e-01
      Current ene_urw:     -1.5853915288e+01
      Current var_urw: 6.8674327833e-01
Setting new Parameters
ERROR   Execution time = 7.0171185362e+00
  </log>
  <optVariables href="O_q0_opt.s008.opt.xml">
eO_0 -9.5343092335e-01 1 1  ON 0
eO_1 -8.4325110496e-01 1 1  ON 1
eO_2 -6.8630580939e-01 1 1  ON 2
eO_3 -4.9023631991e-01 1 1  ON 3
eO_4 -3.2349234627e-01 1 1  ON 4
eO_5 -1.9302225280e-01 1 1  ON 5
eO_6 -1.2810901876e-01 1 1  ON 6
eO_7 -9.4516572806e-02 1 1  ON 7
uu_b 4.2106639599e-01 0 1  ON 8
ud_b 6.3648481666e-01 0 1  ON 9
  </optVariables>
   Restore the number of walkers to 64, removing -24 walkers.
</opt>
</optimization-report>
  QMC Execution time = 7.0304390400e+00 secs 
  Reusing QMCFixedSampleLinearOptimize
 Using QMCCostFunctionOMP::QMCCostFunctionOMP

=========================================================
  Start QMCFixedSampleLinearOptimize
  File Root O_q0_opt.s009 append = no 
=========================================================
  Skip QMCDriver::putQMCInfo 
  Resetting Properties of the walkers 1 x 13

=========================================================
  Start VMCSingleOMP
  File Root O_q0_opt.s009 append = no 
=========================================================
Using existing walkers 
  Resetting Properties of the walkers 1 x 13

<vmc function="put">
  qmc_counter=1  my_counter=9
  time step      = 3.0000000000e-01
  blocks         = 200
  steps          = 4
  substeps       = 1
  current        = 0
  target samples = 8.0000000000e+04
  walkers/mpi    = 64

  stepsbetweensamples = 20
<parameter name="blocks" condition="int">200</parameter>
<parameter name="check_properties" condition="int">100</parameter>
<parameter name="checkproperties" condition="int">100</parameter>
<parameter name="current" condition="int">0</parameter>
<parameter name="dmcwalkersperthread" condition="real">4.0000000000e+01</parameter>
<parameter name="maxcpusecs" condition="real">3.6000000000e+05</parameter>
<parameter name="record_configs" condition="int">0</parameter>
<parameter name="record_walkers" condition="int">20</parameter>
<parameter name="recordconfigs" condition="int">0</parameter>
<parameter name="recordwalkers" condition="int">20</parameter>
<parameter name="rewind" condition="int">0</parameter>
<parameter name="samples" condition="real">8.0000000000e+04</parameter>
<parameter name="samplesperthread" condition="real">4.0000000000e+01</parameter>
<parameter name="steps" condition="int">4</parameter>
<parameter name="stepsbetweensamples" condition="int">20</parameter>
<parameter name="store_configs" condition="int">0</parameter>
<parameter name="storeconfigs" condition="int">0</parameter>
<parameter name="sub_steps" condition="int">1</parameter>
<parameter name="substeps" condition="int">1</parameter>
<parameter name="tau" condition="au">3.0000000000e-01</parameter>
<parameter name="time_step" condition="au">3.0000000000e-01</parameter>
<parameter name="timestep" condition="au">3.0000000000e-01</parameter>
<parameter name="use_drift" condition="string">yes</parameter>
<parameter name="usedrift" condition="string">yes</parameter>
<parameter name="walkers" condition="int">1</parameter>
<parameter name="warmup_steps" condition="int">50</parameter>
<parameter name="warmupsteps" condition="int">50</parameter>
  DumpConfig==false Nothing (configurations, state) will be saved.
  Walker Samples are dumped every 20 steps.
</vmc>

 TraceManager::put() 1
  traces requested          : 0
  method allows traces      : 0
  traces available          : 0


 TraceManager::put() 1
  traces requested          : 0
  method allows traces      : 0
  traces available          : 0

<optimization-report>
<vmc stage="main" blocks="200">
  Cannot make clones again. Use existing 64 clones
  Initial partition of walkers 0 1 2 3 4 5 6 7 8 9 10 11 12 13 14 15 16 17 18 19 20 21 22 23 24 25 26 27 28 29 30 31 32 33 34 35 36 37 38 39 40 41 42 43 44 45 46 47 48 49 50 51 52 53 54 55 56 57 58 59 60 61 62 63 64 
  Total Sample Size   =81920
  Walker distribution on root = 0 1 2 3 4 5 6 7 8 9 10 11 12 13 14 15 16 17 18 19 20 21 22 23 24 25 26 27 28 29 30 31 32 33 34 35 36 37 38 39 40 41 42 43 44 45 46 47 48 49 50 51 52 53 54 55 56 57 58 59 60 61 62 63 64 
====================================================
  SimpleFixedNodeBranch::finalize after a VMC block
    QMC counter        = 9
    time step          = 0.3
    reference energy   = -15.8906
    reference variance = 0.921912
====================================================
  Execution time = 6.4299870475e+00
</vmc>
<opt stage="setup">
  <log>
   Reading configurations from h5FileRoot O_q0_opt.s009
  QMCCostFunctionOMP is created with 64
   Loading configuration from MCWalkerConfiguration::SampleStack 
    number of walkers before load 64
  Using Nonlocal PP in Opt: NonLocalECP
    number of walkers after load: 40 40 40 40 40 40 40 40 40 40 40 40 40 40 40 40 40 40 40 40 40 40 40 40 40 40 40 40 40 40 40 40 40 40 40 40 40 40 40 40 40 40 40 40 40 40 40 40 40 40 40 40 40 40 40 40 40 40 40 40 40 40 40 40 
Using buffers for temporary storage in QMCCostFunction.

Memory usage: 
Linear method (approx matrix usage: 4*N^2): 3.2000000000e-03 MB
Deriv,HDerivRecord:      6.1440000000e-01 MB
Buffer memory cost:     MB/walker       MB/total 
Orbitals only:           1.6000000000e-04      4.0960000000e-01
Orbitals + dervs:        5.7600000000e-04      1.4745600000e+00
Inverse:                 0.0000000000e+00      0.0000000000e+00
Determinants:            0.0000000000e+00      0.0000000000e+00
  VMC Eavg = -1.5852335194e+01
  VMC Evar = 7.5998537866e-01
  Total weights = 8.1920000000e+04
  Execution time = 2.4846790125e-01
  </log>
</opt>
<opt stage="main" walkers="81920">
  <log>
Iteration: 1/1
od_largest 2.7045991472e+01
  stabilityBase -1.6000000000e+01
  stabilizerScale 1.2865025870e+00
  Using XS:-1.6000000000e+01 0 0
  Good Step. Largest LM parameter change:3.9864385402e-02
 OldCost: 7.5998537866e-01 NewCost: 7.5965629336e-01 Delta Cost:-3.2908530361e-04
      Current ene:     -1.5850441632e+01
      Current var:     7.6069618359e-01
      Current ene_urw:     -1.5852381307e+01
      Current var_urw: 7.5965629336e-01
Setting new Parameters
ERROR   Execution time = 7.0124004488e+00
  </log>
  <optVariables href="O_q0_opt.s009.opt.xml">
eO_0 -9.1382087720e-01 1 1  ON 0
eO_1 -8.0338671956e-01 1 1  ON 1
eO_2 -6.5077001190e-01 1 1  ON 2
eO_3 -4.5972838748e-01 1 1  ON 3
eO_4 -2.9941804599e-01 1 1  ON 4
eO_5 -1.7409826953e-01 1 1  ON 5
eO_6 -1.1856006643e-01 1 1  ON 6
eO_7 -9.0853427765e-02 1 1  ON 7
uu_b 4.3640624619e-01 0 1  ON 8
ud_b 6.4850971530e-01 0 1  ON 9
  </optVariables>
   Restore the number of walkers to 64, removing -24 walkers.
</opt>
</optimization-report>
  QMC Execution time = 7.0258573288e+00 secs 
  Reusing QMCFixedSampleLinearOptimize
 Using QMCCostFunctionOMP::QMCCostFunctionOMP

=========================================================
  Start QMCFixedSampleLinearOptimize
  File Root O_q0_opt.s010 append = no 
=========================================================
  Skip QMCDriver::putQMCInfo 
  Resetting Properties of the walkers 1 x 13

=========================================================
  Start VMCSingleOMP
  File Root O_q0_opt.s010 append = no 
=========================================================
Using existing walkers 
  Resetting Properties of the walkers 1 x 13

<vmc function="put">
  qmc_counter=2  my_counter=10
  time step      = 3.0000000000e-01
  blocks         = 200
  steps          = 4
  substeps       = 1
  current        = 0
  target samples = 8.0000000000e+04
  walkers/mpi    = 64

  stepsbetweensamples = 20
<parameter name="blocks" condition="int">200</parameter>
<parameter name="check_properties" condition="int">100</parameter>
<parameter name="checkproperties" condition="int">100</parameter>
<parameter name="current" condition="int">0</parameter>
<parameter name="dmcwalkersperthread" condition="real">4.0000000000e+01</parameter>
<parameter name="maxcpusecs" condition="real">3.6000000000e+05</parameter>
<parameter name="record_configs" condition="int">0</parameter>
<parameter name="record_walkers" condition="int">20</parameter>
<parameter name="recordconfigs" condition="int">0</parameter>
<parameter name="recordwalkers" condition="int">20</parameter>
<parameter name="rewind" condition="int">0</parameter>
<parameter name="samples" condition="real">8.0000000000e+04</parameter>
<parameter name="samplesperthread" condition="real">4.0000000000e+01</parameter>
<parameter name="steps" condition="int">4</parameter>
<parameter name="stepsbetweensamples" condition="int">20</parameter>
<parameter name="store_configs" condition="int">0</parameter>
<parameter name="storeconfigs" condition="int">0</parameter>
<parameter name="sub_steps" condition="int">1</parameter>
<parameter name="substeps" condition="int">1</parameter>
<parameter name="tau" condition="au">3.0000000000e-01</parameter>
<parameter name="time_step" condition="au">3.0000000000e-01</parameter>
<parameter name="timestep" condition="au">3.0000000000e-01</parameter>
<parameter name="use_drift" condition="string">yes</parameter>
<parameter name="usedrift" condition="string">yes</parameter>
<parameter name="walkers" condition="int">1</parameter>
<parameter name="warmup_steps" condition="int">50</parameter>
<parameter name="warmupsteps" condition="int">50</parameter>
  DumpConfig==false Nothing (configurations, state) will be saved.
  Walker Samples are dumped every 20 steps.
</vmc>

 TraceManager::put() 1
  traces requested          : 0
  method allows traces      : 0
  traces available          : 0


 TraceManager::put() 1
  traces requested          : 0
  method allows traces      : 0
  traces available          : 0

<optimization-report>
<vmc stage="main" blocks="200">
  Cannot make clones again. Use existing 64 clones
  Initial partition of walkers 0 1 2 3 4 5 6 7 8 9 10 11 12 13 14 15 16 17 18 19 20 21 22 23 24 25 26 27 28 29 30 31 32 33 34 35 36 37 38 39 40 41 42 43 44 45 46 47 48 49 50 51 52 53 54 55 56 57 58 59 60 61 62 63 64 
  Total Sample Size   =81920
  Walker distribution on root = 0 1 2 3 4 5 6 7 8 9 10 11 12 13 14 15 16 17 18 19 20 21 22 23 24 25 26 27 28 29 30 31 32 33 34 35 36 37 38 39 40 41 42 43 44 45 46 47 48 49 50 51 52 53 54 55 56 57 58 59 60 61 62 63 64 
====================================================
  SimpleFixedNodeBranch::finalize after a VMC block
    QMC counter        = 10
    time step          = 0.3
    reference energy   = -15.847
    reference variance = 0.853662
====================================================
  Execution time = 6.4343323250e+00
</vmc>
<opt stage="setup">
  <log>
   Reading configurations from h5FileRoot O_q0_opt.s010
  QMCCostFunctionOMP is created with 64
   Loading configuration from MCWalkerConfiguration::SampleStack 
    number of walkers before load 64
  Using Nonlocal PP in Opt: NonLocalECP
    number of walkers after load: 40 40 40 40 40 40 40 40 40 40 40 40 40 40 40 40 40 40 40 40 40 40 40 40 40 40 40 40 40 40 40 40 40 40 40 40 40 40 40 40 40 40 40 40 40 40 40 40 40 40 40 40 40 40 40 40 40 40 40 40 40 40 40 40 
Using buffers for temporary storage in QMCCostFunction.

Memory usage: 
Linear method (approx matrix usage: 4*N^2): 3.2000000000e-03 MB
Deriv,HDerivRecord:      6.1440000000e-01 MB
Buffer memory cost:     MB/walker       MB/total 
Orbitals only:           1.6000000000e-04      4.0960000000e-01
Orbitals + dervs:        5.7600000000e-04      1.4745600000e+00
Inverse:                 0.0000000000e+00      0.0000000000e+00
Determinants:            0.0000000000e+00      0.0000000000e+00
  VMC Eavg = -1.5845803295e+01
  VMC Evar = 7.0771416413e-01
  Total weights = 8.1920000000e+04
  Execution time = 2.4455825625e-01
  </log>
</opt>
<opt stage="main" walkers="81920">
  <log>
Iteration: 1/1
od_largest 2.6393282821e+01
  stabilityBase -1.6000000000e+01
  stabilizerScale 1.2848739693e+00
  Using XS:-1.6000000000e+01 0 0
  Good Step. Largest LM parameter change:1.5689395760e-02
 OldCost: 7.0771416413e-01 NewCost: 7.0765392787e-01 Delta Cost:-6.0236255172e-05
      Current ene:     -1.5846486976e+01
      Current var:     7.0712950536e-01
      Current ene_urw:     -1.5845801183e+01
      Current var_urw: 7.0765392787e-01
Setting new Parameters
ERROR   Execution time = 7.0083053613e+00
  </log>
  <optVariables href="O_q0_opt.s010.opt.xml">
eO_0 -9.2918439016e-01 1 1  ON 0
eO_1 -8.1907611532e-01 1 1  ON 1
eO_2 -6.6453247768e-01 1 1  ON 2
eO_3 -4.7161471620e-01 1 1  ON 3
eO_4 -3.0862383403e-01 1 1  ON 4
eO_5 -1.8143952416e-01 1 1  ON 5
eO_6 -1.2250143205e-01 1 1  ON 6
eO_7 -9.2306115950e-02 1 1  ON 7
uu_b 4.3011678707e-01 0 1  ON 8
ud_b 6.4326466050e-01 0 1  ON 9
  </optVariables>
   Restore the number of walkers to 64, removing -24 walkers.
</opt>
</optimization-report>
  QMC Execution time = 7.0213294388e+00 secs 
  Reusing QMCFixedSampleLinearOptimize
 Using QMCCostFunctionOMP::QMCCostFunctionOMP

=========================================================
  Start QMCFixedSampleLinearOptimize
  File Root O_q0_opt.s011 append = no 
=========================================================
  Skip QMCDriver::putQMCInfo 
  Resetting Properties of the walkers 1 x 13

=========================================================
  Start VMCSingleOMP
  File Root O_q0_opt.s011 append = no 
=========================================================
Using existing walkers 
  Resetting Properties of the walkers 1 x 13

<vmc function="put">
  qmc_counter=3  my_counter=11
  time step      = 3.0000000000e-01
  blocks         = 200
  steps          = 4
  substeps       = 1
  current        = 0
  target samples = 8.0000000000e+04
  walkers/mpi    = 64

  stepsbetweensamples = 20
<parameter name="blocks" condition="int">200</parameter>
<parameter name="check_properties" condition="int">100</parameter>
<parameter name="checkproperties" condition="int">100</parameter>
<parameter name="current" condition="int">0</parameter>
<parameter name="dmcwalkersperthread" condition="real">4.0000000000e+01</parameter>
<parameter name="maxcpusecs" condition="real">3.6000000000e+05</parameter>
<parameter name="record_configs" condition="int">0</parameter>
<parameter name="record_walkers" condition="int">20</parameter>
<parameter name="recordconfigs" condition="int">0</parameter>
<parameter name="recordwalkers" condition="int">20</parameter>
<parameter name="rewind" condition="int">0</parameter>
<parameter name="samples" condition="real">8.0000000000e+04</parameter>
<parameter name="samplesperthread" condition="real">4.0000000000e+01</parameter>
<parameter name="steps" condition="int">4</parameter>
<parameter name="stepsbetweensamples" condition="int">20</parameter>
<parameter name="store_configs" condition="int">0</parameter>
<parameter name="storeconfigs" condition="int">0</parameter>
<parameter name="sub_steps" condition="int">1</parameter>
<parameter name="substeps" condition="int">1</parameter>
<parameter name="tau" condition="au">3.0000000000e-01</parameter>
<parameter name="time_step" condition="au">3.0000000000e-01</parameter>
<parameter name="timestep" condition="au">3.0000000000e-01</parameter>
<parameter name="use_drift" condition="string">yes</parameter>
<parameter name="usedrift" condition="string">yes</parameter>
<parameter name="walkers" condition="int">1</parameter>
<parameter name="warmup_steps" condition="int">50</parameter>
<parameter name="warmupsteps" condition="int">50</parameter>
  DumpConfig==false Nothing (configurations, state) will be saved.
  Walker Samples are dumped every 20 steps.
</vmc>

 TraceManager::put() 1
  traces requested          : 0
  method allows traces      : 0
  traces available          : 0


 TraceManager::put() 1
  traces requested          : 0
  method allows traces      : 0
  traces available          : 0

<optimization-report>
<vmc stage="main" blocks="200">
  Cannot make clones again. Use existing 64 clones
  Initial partition of walkers 0 1 2 3 4 5 6 7 8 9 10 11 12 13 14 15 16 17 18 19 20 21 22 23 24 25 26 27 28 29 30 31 32 33 34 35 36 37 38 39 40 41 42 43 44 45 46 47 48 49 50 51 52 53 54 55 56 57 58 59 60 61 62 63 64 
  Total Sample Size   =81920
  Walker distribution on root = 0 1 2 3 4 5 6 7 8 9 10 11 12 13 14 15 16 17 18 19 20 21 22 23 24 25 26 27 28 29 30 31 32 33 34 35 36 37 38 39 40 41 42 43 44 45 46 47 48 49 50 51 52 53 54 55 56 57 58 59 60 61 62 63 64 
====================================================
  SimpleFixedNodeBranch::finalize after a VMC block
    QMC counter        = 11
    time step          = 0.3
    reference energy   = -15.8603
    reference variance = 0.846044
====================================================
  Execution time = 6.4206858950e+00
</vmc>
<opt stage="setup">
  <log>
   Reading configurations from h5FileRoot O_q0_opt.s011
  QMCCostFunctionOMP is created with 64
   Loading configuration from MCWalkerConfiguration::SampleStack 
    number of walkers before load 64
  Using Nonlocal PP in Opt: NonLocalECP
    number of walkers after load: 40 40 40 40 40 40 40 40 40 40 40 40 40 40 40 40 40 40 40 40 40 40 40 40 40 40 40 40 40 40 40 40 40 40 40 40 40 40 40 40 40 40 40 40 40 40 40 40 40 40 40 40 40 40 40 40 40 40 40 40 40 40 40 40 
Using buffers for temporary storage in QMCCostFunction.

Memory usage: 
Linear method (approx matrix usage: 4*N^2): 3.2000000000e-03 MB
Deriv,HDerivRecord:      6.1440000000e-01 MB
Buffer memory cost:     MB/walker       MB/total 
Orbitals only:           1.6000000000e-04      4.0960000000e-01
Orbitals + dervs:        5.7600000000e-04      1.4745600000e+00
Inverse:                 0.0000000000e+00      0.0000000000e+00
Determinants:            0.0000000000e+00      0.0000000000e+00
  VMC Eavg = -1.5846767479e+01
  VMC Evar = 7.4701713964e-01
  Total weights = 8.1920000000e+04
  Execution time = 2.3989925125e-01
  </log>
</opt>
<opt stage="main" walkers="81920">
  <log>
Iteration: 1/1
od_largest 2.5403451301e+01
  stabilityBase -1.6000000000e+01
  stabilizerScale 1.2823256695e+00
  Using XS:-1.6000000000e+01 0 0
  Good Step. Largest LM parameter change:2.8211188550e-02
 OldCost: 7.4701713964e-01 NewCost: 7.4681622535e-01 Delta Cost:-2.0091428584e-04
      Current ene:     -1.5848034209e+01
      Current var:     7.4713504263e-01
      Current ene_urw:     -1.5846754176e+01
      Current var_urw: 7.4681622535e-01
Setting new Parameters
ERROR   Execution time = 6.9930474725e+00
  </log>
  <optVariables href="O_q0_opt.s011.opt.xml">
eO_0 -9.5623201640e-01 1 1  ON 0
eO_1 -8.4728730387e-01 1 1  ON 1
eO_2 -6.8954452383e-01 1 1  ON 2
eO_3 -4.9327199567e-01 1 1  ON 3
eO_4 -3.2560096773e-01 1 1  ON 4
eO_5 -1.9567566480e-01 1 1  ON 5
eO_6 -1.2940405487e-01 1 1  ON 6
eO_7 -9.5221474839e-02 1 1  ON 7
uu_b 4.2002038228e-01 0 1  ON 8
ud_b 6.3472757070e-01 0 1  ON 9
  </optVariables>
   Restore the number of walkers to 64, removing -24 walkers.
</opt>
</optimization-report>
  QMC Execution time = 7.0060820112e+00 secs 
  Total Execution time = 7.5827626221e+01 secs

=========================================================
  A new xml input file : O_q0_opt.s011.cont.xml
