Tue Jun 24 16:15:49 UTC 2014
  Input file(s): O.q0.dmc.in.xml 

=====================================================
                    QMCPACK 1.0.0 

  (c) Copyright 2003-  QMCPACK developers            

  Subversion branch 6312
  Last modified     2014-05-19 15:22:38 +0000 (Mon, 19 May 2014)
=====================================================
  Global options 
  async_swap=0 : using blocking send/recv for walker swaps 

  MPI Nodes            = 32
  MPI Nodes per group  = 32
  MPI Group ID         = 0
  OMP_NUM_THREADS      = 64
  Input XML = O.q0.dmc.in.xml

  Project = O_q0_dmc
  date    = 2014-06-24 16:15:54 UTC
  host    = Q02-I4-J06.vesta.itd
  user    = krogel

  DO NOT READ DENSITY
  Offset for the random number seeds based on time 58
  Random number offset = 58  seeds = 281-18401
  ParticleSetPool::putLattice
  Create Global SuperCell 
  Simulation cell radius = 14.172946
  Wigner-Seitz    radius = 14.172946
<unitcell>
<parameter name="lattice">
     28.3458919900      0.0000000000      0.0000000000
      0.0000000000     28.3458948300      0.0000000000
      0.0000000000      0.0000000000     28.3458976600
</parameter>
<parameter name="bconds">  n  n  n </parameter>
<note>
Volume (A^3) = 22775.6360477081
Reciprocal vectors without 2*pi.
g_1 =       0.0352784806      0.0000000000      0.0000000000
g_2 =       0.0000000000      0.0352784770      0.0000000000
g_3 =       0.0000000000      0.0000000000      0.0352784735
Metric tensor in real-space.
h_1 = 803.4895927087 0.0000000000 0.0000000000 
h_2 = 0.0000000000 803.4897537134 0.0000000000 
h_3 = 0.0000000000 0.0000000000 803.4899141512 
Metric tensor in g-space.
h_1 = 0.0491337012 0.0000000000 0.0000000000 
h_2 = 0.0000000000 0.0491336914 0.0000000000 
h_3 = 0.0000000000 0.0000000000 0.0491336816 
</note>
<note>
	Long-range breakup parameters:
	rc*kc = 15.0000000000; rc = 1000000.0000000000; kc = 0.0000000000

</note>
</unitcell>
  ParticleSetPool::put
  Creating e particleset
  Initializing the lattice of e by the global supercell
  XMLParticleParser::putSpecial
  All the species have the same mass 1.0000000000
Particles are grouped. Safe to use groups 
e
  ParticleSetPool::put
  Creating ion0 particleset
  Initializing the lattice of ion0 by the global supercell
  XMLParticleParser::putSpecial
  All the species have the same mass 29164.3928678000
Particles are grouped. Safe to use groups 
ion0
 Adding WavefunctionFactory for psi0
  WaveFunctionFactory::build
building sposet collection of type bspline
  BasisSetFactory::createBasisSet
EinsplineSetBuilder:  using libeinspline for B-spline orbitals.

Built BasisSetBuilder "bspline" of type bspline
  Building SPOSet "spo_u" with bspline BasisSetBuilder
TOKEN=0 createSPOSetFromXML /soft/applications/qmcpack/src/QMCWaveFunctions/EinsplineSetBuilder_createSPOs.cpp 42
  Distance table for AA: source/target = e
    PBC=open Orthorhombic=NA
 using Cartesian coordinates with 
  ... ParticleSet::addTable Create Table #0 e_e
  Distance table for AB: source = ion0 target = e
    PBC=open Orthorhombic=NA
 using Cartesian coordinates 
  ... ParticleSet::addTable Create Table #1 ion0_e
  Reading 4 orbitals from HDF5 file.
TOKEN=1 ReadOrbitalInfo /soft/applications/qmcpack/src/QMCWaveFunctions/EinsplineSetBuilderOld.cpp 34
  HDF5 orbital file version 2.0.0
TOKEN=2 ReadOrbitalInfo_ESHDF /soft/applications/qmcpack/src/QMCWaveFunctions/EinsplineSetBuilderESHDF.fft.cpp 47
  Reading orbital file in ESHDF format.
  ESHDF orbital file version 2.0.0
  Lattice = 
    [ 28.345892  0.000000  0.000000
       0.000000 28.345895  0.000000
       0.000000  0.000000 28.345898 ]
TOKEN=3 CheckLattice /soft/applications/qmcpack/src/QMCWaveFunctions/EinsplineSetBuilderCommon.cpp 100
  SuperLattice = 
    [ 28.345892  0.000000  0.000000
       0.000000 28.345895  0.000000
       0.000000  0.000000 28.345898 ]
bands=8, elecs=6, spins=2, twists=1, muffin tins=0, core states=0
atomic orbital=0
Atom type(0) = 8
   Skip initialization of the density
TIMER  EinsplineSetBuilder::ReadOrbitalInfo 0.0900039331
TIMER  EinsplineSetBuilder::BroadcastOrbitalInfo 0.0001027437
Found 1 distinct supercell twists.
number of things
1
1
Super twist #0:  [   0.00000   0.00000   0.00000 ]
  Using supercell twist 0:  [   0.00000   0.00000   0.00000]
Using 1 copies of twist angle [-0.000, -0.000, -0.000]
Using real orbitals.
TOKEN=4 TileIons /soft/applications/qmcpack/src/QMCWaveFunctions/EinsplineSetBuilderCommon.cpp 295
TOKEN=5 OccupyBands /soft/applications/qmcpack/src/QMCWaveFunctions/EinsplineSetBuilderCommon.cpp 763
TOKEN=6 OccupyBands_ESHDF /soft/applications/qmcpack/src/QMCWaveFunctions/EinsplineSetBuilderESHDF.fft.cpp 308
Sorting the bands now:
We will read 4 distinct orbitals.
There are 0 core states and 4 valence states.
Rcut = 0.0000000000
dilation = 1
TOKEN=7 bcastSortBands /soft/applications/qmcpack/src/QMCWaveFunctions/einspline_helper.hpp 407
BandInfoGroup::selectBands bigspace has 8 distinct orbitals 
BandInfoGroup::selectBands using distinct orbitals [0,4)
  Number of distinct bands 4
  First Band index 0
  First SPO index 0
  Size of SPOs 4
  SplineC2XAdoptorReader::create_spline_set(spin,SPE*)
  AdoptorName = SplineR2RAdoptor
  Using real einspline table
NumDistinctOrbitals 4 numOrbs = 4
  TwistIndex = 0 TwistAngle      -0.0000000000     -0.0000000000     -0.0000000000
   HalfG =                  0                 0                 0
TOKEN=8 ReadGvectors_ESHDF /soft/applications/qmcpack/src/QMCWaveFunctions/EinsplineSetBuilderReadBands_ESHDF.cpp 658
B-spline mesh factor is 1.0000000000
B-spline mesh size is (256, 256, 256)
Maxmimum number of Gvecs 1088527
  Using meshsize=               256               256               256
  vs input meshsize=               256               256               256
  Time to read the table in einspline.tile_100010001.spin_0.tw_0.l0u4.g256x256x256.h5 = 0.0267491231
  SplineAdoptorReader initialize_spline_pio 7.9396994625 sec
MEMORY increase 265 MB BsplineSetReder
   Using Identity for the LCOrbitalSet 
  Building SPOSet "spo_d" with bspline BasisSetBuilder
TOKEN=9 createSPOSetFromXML /soft/applications/qmcpack/src/QMCWaveFunctions/EinsplineSetBuilder_createSPOs.cpp 42
  ... ParticleSet::addTable Reuse Table #1 ion0_e
TOKEN=10 OccupyBands /soft/applications/qmcpack/src/QMCWaveFunctions/EinsplineSetBuilderCommon.cpp 763
TOKEN=11 OccupyBands_ESHDF /soft/applications/qmcpack/src/QMCWaveFunctions/EinsplineSetBuilderESHDF.fft.cpp 308
Sorting the bands now:
We will read 0 distinct orbitals.
There are 0 core states and 0 valence states.
Rcut = 0.0000000000
dilation = 1
TOKEN=12 bcastSortBands /soft/applications/qmcpack/src/QMCWaveFunctions/einspline_helper.hpp 407
BandInfoGroup::selectBands bigspace has 8 distinct orbitals 
BandInfoGroup::selectBands using distinct orbitals [0,2)
  Number of distinct bands 2
  First Band index 0
  First SPO index 0
  Size of SPOs 2
  SplineC2XAdoptorReader::create_spline_set(spin,SPE*)
  AdoptorName = SplineR2RAdoptor
  Using real einspline table
NumDistinctOrbitals 2 numOrbs = 2
  TwistIndex = 0 TwistAngle      -0.0000000000     -0.0000000000     -0.0000000000
   HalfG =                  0                 0                 0
TOKEN=13 ReadGvectors_ESHDF /soft/applications/qmcpack/src/QMCWaveFunctions/EinsplineSetBuilderReadBands_ESHDF.cpp 658
B-spline mesh factor is 1.0000000000
B-spline mesh size is (256, 256, 256)
Maxmimum number of Gvecs 1088527
  Using meshsize=               256               256               256
  vs input meshsize=               256               256               256
  Time to read the table in einspline.tile_100010001.spin_1.tw_0.l0u2.g256x256x256.h5 = 0.0259724231
  SplineAdoptorReader initialize_spline_pio 7.3755518250 sec
MEMORY increase 132 MB BsplineSetReder
   Using Identity for the LCOrbitalSet 
  WaveFunctionFactory::addFermionTerm
  SlaterDetBuilder::put(xmlNodePtr)
  SlaterDetBuilder::putDeterminant(xmlNodePtr,int)
  Creating a determinant updet group=0 sposet=spo_u
  Reusing a SPO set spo_u

  SlaterDetBuilder::putDeterminant(xmlNodePtr,int)
  Creating a determinant downdet group=1 sposet=spo_d
  Reusing a SPO set spo_d

  FermionWF=SlaterDet
  JastrowBuilder::addOneBody(xmlNodePtr)

  Using BsplineBuilder for one-body jastrow with B-spline functions
  BsplineJastrowBuilder::put(xmlNodePtr)
  BsplineJastrowBuilder::createOneBodyJastrow(xmlNodePtr)
  ... ParticleSet::addTable Reuse Table #1 ion0_e
  ... ParticleSet::addTable Reuse Table #1 ion0_e
  BsplineFunctor::put(xmlNodePtr)
 size = 8 parameters 
 cusp = 0.0000000000
 rcut = 4.5000000000
Parameter     Name      Value
eO_0 -0.9535533505 1 1  ON 0
eO_1 -0.8433746661 1 1  ON 1
eO_2 -0.6864140526 1 1  ON 2
eO_3 -0.4903284113 1 1  ON 3
eO_4 -0.3235646336 1 1  ON 4
eO_5 -0.1930786799 1 1  ON 5
eO_6 -0.1281371896 1 1  ON 6
eO_7 -0.0945247693 1 1  ON 7
  JastrowBuilder::addTwoBody(xmlNodePtr)
  PadeJastrowBuilder::put()
  HamiltonianPool::put
  QMCHamiltonian::addOperator Kinetic to H, physical Hamiltonian 
  ... ParticleSet::addTable Reuse Table #0 e_e
  QMCHamiltonian::addOperator ElecElec to H, physical Hamiltonian 
  CoulombAA for ion0 is not created.  Number of particles == 1 and nonPeriodic

  ECPotential builder for pseudopotential 

  Adding pseudopotential for O
   Linear grid  ri=0.0000000000 rf=10.0000000000 npts = 10001
    ECPComponentBuilder::buildSemiLocalAndLocal 
    Assuming Hartree unit
   Number of angular momentum channels 2
   Maximum angular momentum channel 1
   Creating a Linear Grid Rmax=1.3100000000
  Using global grid with delta = 0.0010000000
   Making L=1 a local potential with a radial cutoff of 9.9980000000
  NonLocalECPComponent::resize_warrays 
    Non-local pseudopotential parameters
    Maximum angular mementum = 0
    Number of non-local channels = 1
       l(0)=0
    Cutoff radius = 1.3100000000
    Spherical grids and weights: 
             1.0000000000      0.0000000000      0.0000000000        0.0833333333
            -1.0000000000      0.0000000000      0.0000000000        0.0833333333
             0.4472135955      0.8944271910      0.0000000000        0.0833333333
            -0.4472135955      0.7236067977      0.5257311121        0.0833333333
             0.4472135955      0.2763932023      0.8506508084        0.0833333333
            -0.4472135955     -0.2763932023      0.8506508084        0.0833333333
             0.4472135955     -0.7236067977      0.5257311121        0.0833333333
            -0.4472135955     -0.8944271910      0.0000000000        0.0833333333
             0.4472135955     -0.7236067977     -0.5257311121        0.0833333333
            -0.4472135955     -0.2763932023     -0.8506508084        0.0833333333
             0.4472135955      0.2763932023     -0.8506508084        0.0833333333
            -0.4472135955      0.7236067977     -0.5257311121        0.0833333333
    Maximum cutoff radius 1.3100000000
  ... ParticleSet::addTable Reuse Table #1 ion0_e
  QMCHamiltonian::addOperator LocalECP to H, physical Hamiltonian 
  ForceBase::ForceBase
  ... ParticleSet::addTable Reuse Table #1 ion0_e
  ... ParticleSet::addTable Reuse Table #1 ion0_e

  Using NonLocalECP potential 
    Maximum grid on a sphere for NonLocalECPotential: 12
  QMCHamiltonian::addOperator NonLocalECP to H, physical Hamiltonian 

  QMCHamiltonian::add2WalkerProperty added
    4 to P::PropertyList 
    0 to P::Collectables 
    starting Index of the observables in P::PropertyList = 9
  Hamiltonian disables VirtualMoves
ParticleSetPool::randomize 
<init source="ion0" target="e">
</init>
=========================================================
 Summary of QMC systems 
=========================================================
ParticleSetPool has: 

  ParticleSet e : 0 4 6 

    6

    u  1.3703418972e+01  1.5436818450e+01  1.4074116665e+01
    u  1.3656965370e+01  1.4445875800e+01  1.4737866301e+01
    u  1.3727960906e+01  1.5098856947e+01  1.3020395454e+01
    u  1.2824610847e+01  1.2795387547e+01  1.3340920572e+01
    d  1.5005575287e+01  1.3419970225e+01  1.4012107668e+01
    d  1.3169744667e+01  1.4624154796e+01  1.2115715425e+01

  ParticleSet ion0 : 0 1 

    1

    O  1.4172946000e+01  1.4172947410e+01  1.4172948830e+01

  Hamiltonian h0
  Kinetic         Kinetic energy
  ElecElec        CoulombAA source/target e

  LocalECP        LocalECPotential: ion0
  NonLocalECP     NonLocalECPotential: ion0

=========================================================
  Start VMCSingleOMP
  File Root O_q0_dmc.s000 append = no 
=========================================================
  Adding 64 walkers to 0 existing sets
  Total number of walkers: 2.0480000000e+03
  Total weight: 2.0480000000e+03
  Resetting Properties of the walkers 1 x 13

<vmc function="put">
  qmc_counter=0  my_counter=0
  time step      = 3.0000000000e-01
  blocks         = 20
  steps          = 10
  substeps       = 1
  current        = 0
  target samples = 2.0480000000e+03
  walkers/mpi    = 64

  stepsbetweensamples = 200
<parameter name="blocks" condition="int">20</parameter>
<parameter name="check_properties" condition="int">100</parameter>
<parameter name="checkproperties" condition="int">100</parameter>
<parameter name="current" condition="int">0</parameter>
<parameter name="dmcwalkersperthread" condition="real">1.0000000000e+00</parameter>
<parameter name="maxcpusecs" condition="real">3.6000000000e+05</parameter>
<parameter name="record_configs" condition="int">0</parameter>
<parameter name="record_walkers" condition="int">200</parameter>
<parameter name="recordconfigs" condition="int">0</parameter>
<parameter name="recordwalkers" condition="int">200</parameter>
<parameter name="rewind" condition="int">0</parameter>
<parameter name="samples" condition="real">2.0480000000e+03</parameter>
<parameter name="samplesperthread" condition="real">1.0000000000e+00</parameter>
<parameter name="steps" condition="int">10</parameter>
<parameter name="stepsbetweensamples" condition="int">200</parameter>
<parameter name="store_configs" condition="int">0</parameter>
<parameter name="storeconfigs" condition="int">0</parameter>
<parameter name="sub_steps" condition="int">1</parameter>
<parameter name="substeps" condition="int">1</parameter>
<parameter name="tau" condition="au">3.0000000000e-01</parameter>
<parameter name="time_step" condition="au">3.0000000000e-01</parameter>
<parameter name="timestep" condition="au">3.0000000000e-01</parameter>
<parameter name="use_drift" condition="string">yes</parameter>
<parameter name="usedrift" condition="string">yes</parameter>
<parameter name="walkers" condition="int">64</parameter>
<parameter name="warmup_steps" condition="int">30</parameter>
<parameter name="warmupsteps" condition="int">30</parameter>
  DumpConfig==false Nothing (configurations, state) will be saved.
  Walker Samples are dumped every 200 steps.
</vmc>

 TraceManager::put() 1
  traces requested          : 0
  method allows traces      : 1
  traces available          : 0

  Adding a default LocalEnergyEstimator for the MainEstimator 
  CloneManager::makeClones makes 64 clones for W/Psi/H.
  Cloning methods for both Psi and H are used
  Initial partition of walkers 0 1 2 3 4 5 6 7 8 9 10 11 12 13 14 15 16 17 18 19 20 21 22 23 24 25 26 27 28 29 30 31 32 33 34 35 36 37 38 39 40 41 42 43 44 45 46 47 48 49 50 51 52 53 54 55 56 57 58 59 60 61 62 63 64 
  PbyP moves with drift, using VMCUpdatePbyPWithDriftFast

  Total Sample Size   =2048
  Walker distribution on root = 0 1 2 3 4 5 6 7 8 9 10 11 12 13 14 15 16 17 18 19 20 21 22 23 24 25 26 27 28 29 30 31 32 33 34 35 36 37 38 39 40 41 42 43 44 45 46 47 48 49 50 51 52 53 54 55 56 57 58 59 60 61 62 63 64 
  Anonymous Buffer size per walker 389
MEMORY increase 0 MB VMCSingleOMP::resetRun
====================================================
  SimpleFixedNodeBranch::finalize after a VMC block
    QMC counter        = 0
    time step          = 0.3
    reference energy   = -15.8177
    reference variance = 0.894606
====================================================
  QMC Execution time = 7.2804709750e-01 secs 
Creating DMCMP for the qmc driver

=========================================================
  Start DMCOMP
  File Root O_q0_dmc.s001 append = no 
=========================================================
Using existing walkers 
  Resetting Properties of the walkers 1 x 13

 TraceManager::put() 1
  traces requested          : 0
  method allows traces      : 1
  traces available          : 0

  DMCOMP::resetUpdateEngines
  Cannot make clones again. Use existing 64 clones
  Total number of walkers: 2.0480000000e+03
  Total weight: 2.0480000000e+03
  Creating WalkerController: target  number of walkers = 2048
  Using WalkerControlMPI for dynamic population control.
  START ALL OVER 
  WalkerControlBase parameters 
    maxCopy = 2
   Max Walkers per node 129
   Min Walkers per node 13
  QMC counter      = 1
  time step        = 4.0000000000e-02
  effective time step = 4.0000000000e-02
  trial energy     = -1.5817700539e+01
  reference energy = -1.5817700539e+01
  Feedback = 1.0000000000e+00
  reference variance = 8.9460636353e-01
  target walkers = 2048
  branch cutoff = 5.0000000000e+01 7.5000000000e+01
  Max and mimum walkers per node= 129 13
  QMC Status (BranchMode) = 0000001101
  Initial partition of walkers on a node: 0 1 2 3 4 5 6 7 8 9 10 11 12 13 14 15 16 17 18 19 20 21 22 23 24 25 26 27 28 29 30 31 32 33 34 35 36 37 38 39 40 41 42 43 44 45 46 47 48 49 50 51 52 53 54 55 56 57 58 59 60 61 62 63 64 
  Updates by particle-by-particle moves using fast gradient version 
  DMC moves are rejected when a node crossing is detected
SimpleFixedNodeBranch::checkParameters 
  Average Energy of a population  = -15.8529
  Energy Variance = 0.798899

  Fluctuating population
  Persisent walkers are killed after 1 MC sweeps
  BranchInterval = 1
  Steps per block = 4
  Number of blocks = 400

  DMC Engine Initialization = 2.8382295000e-02 secs 

 Warmup is completed after 100

  TauEff     = 3.7192427045e-02
 TauEff/Tau = 9.2981067612e-01
  Etrial     = -1.5892206624e+01
 Running average of energy = -1.5892548312e+01
                  Variance = 7.7525319903e-01
branch cutoff = 1.0000000000e+01 1.5000000000e+01
====================================================
  SimpleFixedNodeBranch::finalize after a DMC block
    QMC counter                   = 1
    time step                     = 0.04
    effective time step           = 0.0371668
    trial energy                  = -15.8949
    reference energy              = -15.9008
    reference variance            = 0.775253
    target walkers                = 2048
    branch cutoff                 = 10 15
    Max and mimum walkers per node= 129 13
    Feedback                      = 1
    QMC Status (BranchMode)       = 0000001111
====================================================
  QMC Execution time = 1.5524439296e+01 secs 
  Reusing DMCOMP
BRANCH resetRun
 SimpleFixedNodeBranch::resetRun detected changes in <parameter>'s 
 BranchMode : 0000001111 0000001111
  WalkerControlBase parameters 
    maxCopy = 2
   Max Walkers per node 129
   Min Walkers per node 13
 iParam (old): 0                 1                 1                 2048              129               13                1                 0                 
 iParam (new): 40                1                 1                 2048              129               13                1                 0                 
 vParam (old): 4.0000000000e-02  3.7166760279e-02  -1.5894892676e+01 -1.5900769285e+01 -1.5880635793e+01 1.5000000000e+01  1.0000000000e+01  2.0000000000e-01  7.7525319903e-01  -2.3867034563e+04 1.5010000000e+03  1.0000000000e+00  1.0000000000e+01  1.0000000000e+00  1.0000000000e+00  1.0000000000e+00  1.0000000000e+00  
 vParam (new): 2.0000000000e-02  3.7166760279e-02  -1.5894892676e+01 -1.5900769285e+01 -1.5880635793e+01 1.5000000000e+01  1.0000000000e+01  2.0000000000e-01  7.7525319903e-01  -2.3867034563e+04 1.5010000000e+03  1.0000000000e+00  1.0000000000e+01  1.0000000000e+00  1.0000000000e+00  1.0000000000e+00  1.0000000000e+00  
SimpleFixedNodeBranch::checkParameters 
  Average Energy of a population  = -15.8728
  Energy Variance = 0.828227


=========================================================
  Start DMCOMP
  File Root O_q0_dmc.s002 append = no 
=========================================================
Using existing walkers 
  Resetting Properties of the walkers 1 x 13

 TraceManager::put() 1
  traces requested          : 0
  method allows traces      : 1
  traces available          : 0

  DMCOMP::resetUpdateEngines
  Cannot make clones again. Use existing 64 clones
SimpleFixedNodeBranch::checkParameters 
  Average Energy of a population  = -15.8809
  Energy Variance = 1.04519

  Fluctuating population
  Persisent walkers are killed after 1 MC sweeps
  BranchInterval = 1
  Steps per block = 8
  Number of blocks = 400

  DMC Engine Initialization = 1.9407900000e-03 secs 

 Warmup is completed after 40

  TauEff     = 1.9372716373e-02
 TauEff/Tau = 9.6863581866e-01
  Etrial     = -1.5940610612e+01
 Running average of energy = -1.5892346004e+01
                  Variance = 7.2359036313e-01
branch cutoff = 1.0000000000e+01 1.5000000000e+01
====================================================
  SimpleFixedNodeBranch::finalize after a DMC block
    QMC counter                   = 2
    time step                     = 0.02
    effective time step           = 0.0193763
    trial energy                  = -15.8896
    reference energy              = -15.8949
    reference variance            = 0.72359
    target walkers                = 2048
    branch cutoff                 = 10 15
    Max and mimum walkers per node= 129 13
    Feedback                      = 1
    QMC Status (BranchMode)       = 0000001111
====================================================
  QMC Execution time = 1.9471357931e+01 secs 
  Reusing DMCOMP
BRANCH resetRun
 SimpleFixedNodeBranch::resetRun detected changes in <parameter>'s 
 BranchMode : 0000001111 0000001111
  WalkerControlBase parameters 
    maxCopy = 2
   Max Walkers per node 129
   Min Walkers per node 13
 iParam (old): 0                 1                 2                 2048              129               13                1                 0                 
 iParam (new): 80                1                 2                 2048              129               13                1                 0                 
 vParam (old): 2.0000000000e-02  1.9376322934e-02  -1.5889564076e+01 -1.5894949646e+01 -1.5908569678e+01 1.5000000000e+01  1.0000000000e+01  2.0000000000e-01  7.2359036313e-01  -5.0243949452e+04 3.1610000000e+03  1.0000000000e+00  1.0000000000e+01  1.0000000000e+00  1.0000000000e+00  1.0000000000e+00  1.0000000000e+00  
 vParam (new): 1.0000000000e-02  1.9376322934e-02  -1.5889564076e+01 -1.5894949646e+01 -1.5908569678e+01 1.5000000000e+01  1.0000000000e+01  2.0000000000e-01  7.2359036313e-01  -5.0243949452e+04 3.1610000000e+03  1.0000000000e+00  1.0000000000e+01  1.0000000000e+00  1.0000000000e+00  1.0000000000e+00  1.0000000000e+00  
SimpleFixedNodeBranch::checkParameters 
  Average Energy of a population  = -15.9058
  Energy Variance = 0.814157


=========================================================
  Start DMCOMP
  File Root O_q0_dmc.s003 append = no 
=========================================================
Using existing walkers 
  Resetting Properties of the walkers 1 x 13

 TraceManager::put() 1
  traces requested          : 0
  method allows traces      : 1
  traces available          : 0

  DMCOMP::resetUpdateEngines
  Cannot make clones again. Use existing 64 clones
SimpleFixedNodeBranch::checkParameters 
  Average Energy of a population  = -15.8805
  Energy Variance = 0.84178

  Fluctuating population
  Persisent walkers are killed after 1 MC sweeps
  BranchInterval = 1
  Steps per block = 16
  Number of blocks = 400

  DMC Engine Initialization = 1.9393262500e-03 secs 

 Warmup is completed after 80

  TauEff     = 9.8684384239e-03
 TauEff/Tau = 9.8684384239e-01
  Etrial     = -1.5900546701e+01
 Running average of energy = -1.5888712204e+01
                  Variance = 6.8685913583e-01
branch cutoff = 1.0000000000e+01 1.5000000000e+01
====================================================
  SimpleFixedNodeBranch::finalize after a DMC block
    QMC counter                   = 3
    time step                     = 0.01
    effective time step           = 0.00987022
    trial energy                  = -15.9127
    reference energy              = -15.8924
    reference variance            = 0.686859
    target walkers                = 2048
    branch cutoff                 = 10 15
    Max and mimum walkers per node= 129 13
    Feedback                      = 1
    QMC Status (BranchMode)       = 0000001111
====================================================
  QMC Execution time = 2.7814063900e+01 secs 
  Reusing DMCOMP
BRANCH resetRun
 SimpleFixedNodeBranch::resetRun detected changes in <parameter>'s 
 BranchMode : 0000001111 0000001111
  WalkerControlBase parameters 
    maxCopy = 2
   Max Walkers per node 129
   Min Walkers per node 13
 iParam (old): 0                 1                 3                 2048              129               13                1                 0                 
 iParam (new): 160               1                 3                 2048              129               13                1                 0                 
 vParam (old): 1.0000000000e-02  9.8702230085e-03  -1.5912748297e+01 -1.5892447939e+01 -1.5895792368e+01 1.5000000000e+01  1.0000000000e+01  2.0000000000e-01  6.8685913583e-01  -1.0045616676e+05 6.3210000000e+03  1.0000000000e+00  1.0000000000e+01  1.0000000000e+00  1.0000000000e+00  1.0000000000e+00  1.0000000000e+00  
 vParam (new): 5.0000000000e-03  9.8702230085e-03  -1.5912748297e+01 -1.5892447939e+01 -1.5895792368e+01 1.5000000000e+01  1.0000000000e+01  2.0000000000e-01  6.8685913583e-01  -1.0045616676e+05 6.3210000000e+03  1.0000000000e+00  1.0000000000e+01  1.0000000000e+00  1.0000000000e+00  1.0000000000e+00  1.0000000000e+00  
SimpleFixedNodeBranch::checkParameters 
  Average Energy of a population  = -15.8957
  Energy Variance = 0.805854


=========================================================
  Start DMCOMP
  File Root O_q0_dmc.s004 append = no 
=========================================================
Using existing walkers 
  Resetting Properties of the walkers 1 x 13

 TraceManager::put() 1
  traces requested          : 0
  method allows traces      : 1
  traces available          : 0

  DMCOMP::resetUpdateEngines
  Cannot make clones again. Use existing 64 clones
SimpleFixedNodeBranch::checkParameters 
  Average Energy of a population  = -15.8756
  Energy Variance = 0.798079

  Fluctuating population
  Persisent walkers are killed after 1 MC sweeps
  BranchInterval = 1
  Steps per block = 32
  Number of blocks = 400

  DMC Engine Initialization = 1.9140000000e-03 secs 

 Warmup is completed after 160

  TauEff     = 4.9736540213e-03
 TauEff/Tau = 9.9473080426e-01
  Etrial     = -1.5933488811e+01
 Running average of energy = -1.5891157874e+01
                  Variance = 7.0833395856e-01
branch cutoff = 1.0000000000e+01 1.5000000000e+01
====================================================
  SimpleFixedNodeBranch::finalize after a DMC block
    QMC counter                   = 4
    time step                     = 0.005
    effective time step           = 0.00497385
    trial energy                  = -15.8844
    reference energy              = -15.8917
    reference variance            = 0.708334
    target walkers                = 2048
    branch cutoff                 = 10 15
    Max and mimum walkers per node= 129 13
    Feedback                      = 1
    QMC Status (BranchMode)       = 0000001111
====================================================
  QMC Execution time = 4.4517969847e+01 secs 
  Reusing DMCOMP
BRANCH resetRun
 SimpleFixedNodeBranch::resetRun detected changes in <parameter>'s 
 BranchMode : 0000001111 0000001111
  WalkerControlBase parameters 
    maxCopy = 2
   Max Walkers per node 129
   Min Walkers per node 13
 iParam (old): 0                 1                 4                 2048              129               13                1                 0                 
 iParam (new): 320               1                 4                 2048              129               13                1                 0                 
 vParam (old): 5.0000000000e-03  4.9738450175e-03  -1.5884356093e+01 -1.5891707266e+01 -1.5900789089e+01 1.5000000000e+01  1.0000000000e+01  2.0000000000e-01  7.0833395856e-01  -2.0088708063e+05 1.2641000000e+04  1.0000000000e+00  1.0000000000e+01  1.0000000000e+00  1.0000000000e+00  1.0000000000e+00  1.0000000000e+00  
 vParam (new): 2.5000000000e-03  4.9738450175e-03  -1.5884356093e+01 -1.5891707266e+01 -1.5900789089e+01 1.5000000000e+01  1.0000000000e+01  2.0000000000e-01  7.0833395856e-01  -2.0088708063e+05 1.2641000000e+04  1.0000000000e+00  1.0000000000e+01  1.0000000000e+00  1.0000000000e+00  1.0000000000e+00  1.0000000000e+00  
SimpleFixedNodeBranch::checkParameters 
  Average Energy of a population  = -15.8996
  Energy Variance = 0.828508


=========================================================
  Start DMCOMP
  File Root O_q0_dmc.s005 append = no 
=========================================================
Using existing walkers 
  Resetting Properties of the walkers 1 x 13

 TraceManager::put() 1
  traces requested          : 0
  method allows traces      : 1
  traces available          : 0

  DMCOMP::resetUpdateEngines
  Cannot make clones again. Use existing 64 clones
SimpleFixedNodeBranch::checkParameters 
  Average Energy of a population  = -15.8853
  Energy Variance = 0.796908

  Fluctuating population
  Persisent walkers are killed after 1 MC sweeps
  BranchInterval = 1
  Steps per block = 64
  Number of blocks = 400

  DMC Engine Initialization = 1.9158562500e-03 secs 

 Warmup is completed after 320

  TauEff     = 2.4948139256e-03
 TauEff/Tau = 9.9792557025e-01
  Etrial     = -1.5906003060e+01
 Running average of energy = -1.5891645582e+01
                  Variance = 7.0130557450e-01
branch cutoff = 1.0000000000e+01 1.5000000000e+01
====================================================
  SimpleFixedNodeBranch::finalize after a DMC block
    QMC counter                   = 5
    time step                     = 0.0025
    effective time step           = 0.00249483
    trial energy                  = -15.8843
    reference energy              = -15.8926
    reference variance            = 0.701306
    target walkers                = 2048
    branch cutoff                 = 10 15
    Max and mimum walkers per node= 129 13
    Feedback                      = 1
    QMC Status (BranchMode)       = 0000001111
====================================================
  QMC Execution time = 7.8036511612e+01 secs 
  Total Execution time = 1.8639146675e+02 secs

=========================================================
  A new xml input file : O_q0_dmc.s005.cont.xml
