Tue Jun 24 18:23:17 UTC 2014
  Input file(s): O.q1.opt.in.xml 

=====================================================
                    QMCPACK 1.0.0 

  (c) Copyright 2003-  QMCPACK developers            

  Subversion branch 6312
  Last modified     2014-05-19 15:22:38 +0000 (Mon, 19 May 2014)
=====================================================
  Global options 
  async_swap=0 : using blocking send/recv for walker swaps 

  MPI Nodes            = 32
  MPI Nodes per group  = 32
  MPI Group ID         = 0
  OMP_NUM_THREADS      = 64
  Input XML = O.q1.opt.in.xml

  Project = O_q1_opt
  date    = 2014-06-24 18:23:23 UTC
  host    = Q02-I4-J07.vesta.itd
  user    = krogel

  DO NOT READ DENSITY
  Offset for the random number seeds based on time 539
  Random number offset = 539  seeds = 3911-23201
  ParticleSetPool::putLattice
  Create Global SuperCell 
  Simulation cell radius = 14.172946
  Wigner-Seitz    radius = 14.172946
<unitcell>
<parameter name="lattice">
     28.3458919900      0.0000000000      0.0000000000
      0.0000000000     28.3458948300      0.0000000000
      0.0000000000      0.0000000000     28.3458976600
</parameter>
<parameter name="bconds">  n  n  n </parameter>
<note>
Volume (A^3) = 22775.6360477081
Reciprocal vectors without 2*pi.
g_1 =       0.0352784806      0.0000000000      0.0000000000
g_2 =       0.0000000000      0.0352784770      0.0000000000
g_3 =       0.0000000000      0.0000000000      0.0352784735
Metric tensor in real-space.
h_1 = 803.4895927087 0.0000000000 0.0000000000 
h_2 = 0.0000000000 803.4897537134 0.0000000000 
h_3 = 0.0000000000 0.0000000000 803.4899141512 
Metric tensor in g-space.
h_1 = 0.0491337012 0.0000000000 0.0000000000 
h_2 = 0.0000000000 0.0491336914 0.0000000000 
h_3 = 0.0000000000 0.0000000000 0.0491336816 
</note>
<note>
	Long-range breakup parameters:
	rc*kc = 15.0000000000; rc = 1000000.0000000000; kc = 0.0000000000

</note>
</unitcell>
  ParticleSetPool::put
  Creating e particleset
  Initializing the lattice of e by the global supercell
  XMLParticleParser::putSpecial
  All the species have the same mass 1.0000000000
Particles are grouped. Safe to use groups 
e
  ParticleSetPool::put
  Creating ion0 particleset
  Initializing the lattice of ion0 by the global supercell
  XMLParticleParser::putSpecial
  All the species have the same mass 29164.3928678000
Particles are grouped. Safe to use groups 
ion0
 Adding WavefunctionFactory for psi0
  WaveFunctionFactory::build
building sposet collection of type bspline
  BasisSetFactory::createBasisSet
EinsplineSetBuilder:  using libeinspline for B-spline orbitals.

Built BasisSetBuilder "bspline" of type bspline
  Building SPOSet "spo_u" with bspline BasisSetBuilder
TOKEN=0 createSPOSetFromXML /soft/applications/qmcpack/src/QMCWaveFunctions/EinsplineSetBuilder_createSPOs.cpp 42
  Distance table for AA: source/target = e
    PBC=open Orthorhombic=NA
 using Cartesian coordinates with 
  ... ParticleSet::addTable Create Table #0 e_e
  Distance table for AB: source = ion0 target = e
    PBC=open Orthorhombic=NA
 using Cartesian coordinates 
  ... ParticleSet::addTable Create Table #1 ion0_e
  Reading 4 orbitals from HDF5 file.
TOKEN=1 ReadOrbitalInfo /soft/applications/qmcpack/src/QMCWaveFunctions/EinsplineSetBuilderOld.cpp 34
  HDF5 orbital file version 2.0.0
TOKEN=2 ReadOrbitalInfo_ESHDF /soft/applications/qmcpack/src/QMCWaveFunctions/EinsplineSetBuilderESHDF.fft.cpp 47
  Reading orbital file in ESHDF format.
  ESHDF orbital file version 2.0.0
  Lattice = 
    [ 28.345892  0.000000  0.000000
       0.000000 28.345895  0.000000
       0.000000  0.000000 28.345898 ]
TOKEN=3 CheckLattice /soft/applications/qmcpack/src/QMCWaveFunctions/EinsplineSetBuilderCommon.cpp 100
  SuperLattice = 
    [ 28.345892  0.000000  0.000000
       0.000000 28.345895  0.000000
       0.000000  0.000000 28.345898 ]
bands=8, elecs=5, spins=2, twists=1, muffin tins=0, core states=0
atomic orbital=0
Atom type(0) = 8
   Skip initialization of the density
TIMER  EinsplineSetBuilder::ReadOrbitalInfo 0.1012125106
TIMER  EinsplineSetBuilder::BroadcastOrbitalInfo 0.0001033550
Found 1 distinct supercell twists.
number of things
1
1
Super twist #0:  [   0.00000   0.00000   0.00000 ]
  Using supercell twist 0:  [   0.00000   0.00000   0.00000]
Using 1 copies of twist angle [-0.000, -0.000, -0.000]
Using real orbitals.
TOKEN=4 TileIons /soft/applications/qmcpack/src/QMCWaveFunctions/EinsplineSetBuilderCommon.cpp 295
TOKEN=5 OccupyBands /soft/applications/qmcpack/src/QMCWaveFunctions/EinsplineSetBuilderCommon.cpp 763
TOKEN=6 OccupyBands_ESHDF /soft/applications/qmcpack/src/QMCWaveFunctions/EinsplineSetBuilderESHDF.fft.cpp 308
Sorting the bands now:
We will read 4 distinct orbitals.
There are 0 core states and 4 valence states.
Rcut = 0.0000000000
dilation = 1
TOKEN=7 bcastSortBands /soft/applications/qmcpack/src/QMCWaveFunctions/einspline_helper.hpp 407
BandInfoGroup::selectBands bigspace has 8 distinct orbitals 
BandInfoGroup::selectBands using distinct orbitals [0,4)
  Number of distinct bands 4
  First Band index 0
  First SPO index 0
  Size of SPOs 4
  SplineC2XAdoptorReader::create_spline_set(spin,SPE*)
  AdoptorName = SplineR2RAdoptor
  Using real einspline table
NumDistinctOrbitals 4 numOrbs = 4
  TwistIndex = 0 TwistAngle      -0.0000000000     -0.0000000000     -0.0000000000
   HalfG =                  0                 0                 0
TOKEN=8 ReadGvectors_ESHDF /soft/applications/qmcpack/src/QMCWaveFunctions/EinsplineSetBuilderReadBands_ESHDF.cpp 658
B-spline mesh factor is 1.0000000000
B-spline mesh size is (256, 256, 256)
Maxmimum number of Gvecs 1088527
  Using meshsize=               256               256               256
  vs input meshsize=               256               256               256
  Time to read the table in einspline.tile_100010001.spin_0.tw_0.l0u4.g256x256x256.h5 = 0.0099326006
  SplineAdoptorReader initialize_spline_pio 7.8963292725 sec
MEMORY increase 265 MB BsplineSetReder
   Using Identity for the LCOrbitalSet 
  Building SPOSet "spo_d" with bspline BasisSetBuilder
TOKEN=9 createSPOSetFromXML /soft/applications/qmcpack/src/QMCWaveFunctions/EinsplineSetBuilder_createSPOs.cpp 42
  ... ParticleSet::addTable Reuse Table #1 ion0_e
TOKEN=10 OccupyBands /soft/applications/qmcpack/src/QMCWaveFunctions/EinsplineSetBuilderCommon.cpp 763
TOKEN=11 OccupyBands_ESHDF /soft/applications/qmcpack/src/QMCWaveFunctions/EinsplineSetBuilderESHDF.fft.cpp 308
Sorting the bands now:
We will read 0 distinct orbitals.
There are 0 core states and 0 valence states.
Rcut = 0.0000000000
dilation = 1
TOKEN=12 bcastSortBands /soft/applications/qmcpack/src/QMCWaveFunctions/einspline_helper.hpp 407
BandInfoGroup::selectBands bigspace has 8 distinct orbitals 
BandInfoGroup::selectBands using distinct orbitals [0,1)
  Number of distinct bands 1
  First Band index 0
  First SPO index 0
  Size of SPOs 1
  SplineC2XAdoptorReader::create_spline_set(spin,SPE*)
  AdoptorName = SplineR2RAdoptor
  Using real einspline table
NumDistinctOrbitals 1 numOrbs = 1
  TwistIndex = 0 TwistAngle      -0.0000000000     -0.0000000000     -0.0000000000
   HalfG =                  0                 0                 0
TOKEN=13 ReadGvectors_ESHDF /soft/applications/qmcpack/src/QMCWaveFunctions/EinsplineSetBuilderReadBands_ESHDF.cpp 658
B-spline mesh factor is 1.0000000000
B-spline mesh size is (256, 256, 256)
Maxmimum number of Gvecs 1088527
  Using meshsize=               256               256               256
  vs input meshsize=               256               256               256
  Time to read the table in einspline.tile_100010001.spin_1.tw_0.l0u1.g256x256x256.h5 = 0.0129102131
  SplineAdoptorReader initialize_spline_pio 7.1940334800 sec
MEMORY increase 66 MB BsplineSetReder
   Using Identity for the LCOrbitalSet 
  WaveFunctionFactory::addFermionTerm
  SlaterDetBuilder::put(xmlNodePtr)
  SlaterDetBuilder::putDeterminant(xmlNodePtr,int)
  Creating a determinant updet group=0 sposet=spo_u
  Reusing a SPO set spo_u

  SlaterDetBuilder::putDeterminant(xmlNodePtr,int)
  Creating a determinant downdet group=1 sposet=spo_d
  Reusing a SPO set spo_d

  FermionWF=SlaterDet
  JastrowBuilder::addOneBody(xmlNodePtr)

  Using BsplineBuilder for one-body jastrow with B-spline functions
  BsplineJastrowBuilder::put(xmlNodePtr)
  BsplineJastrowBuilder::createOneBodyJastrow(xmlNodePtr)
  ... ParticleSet::addTable Reuse Table #1 ion0_e
  ... ParticleSet::addTable Reuse Table #1 ion0_e
  BsplineFunctor::put(xmlNodePtr)
 size = 8 parameters 
 cusp = 0.0000000000
 rcut = 4.5000000000
Parameter     Name      Value
eO_0 0.0000000000 1 1  ON 0
eO_1 0.0000000000 1 1  ON 1
eO_2 0.0000000000 1 1  ON 2
eO_3 0.0000000000 1 1  ON 3
eO_4 0.0000000000 1 1  ON 4
eO_5 0.0000000000 1 1  ON 5
eO_6 0.0000000000 1 1  ON 6
eO_7 0.0000000000 1 1  ON 7
  JastrowBuilder::addTwoBody(xmlNodePtr)
  PadeJastrowBuilder::put()
  HamiltonianPool::put
  QMCHamiltonian::addOperator Kinetic to H, physical Hamiltonian 
  ... ParticleSet::addTable Reuse Table #0 e_e
  QMCHamiltonian::addOperator ElecElec to H, physical Hamiltonian 
  CoulombAA for ion0 is not created.  Number of particles == 1 and nonPeriodic

  ECPotential builder for pseudopotential 

  Adding pseudopotential for O
   Linear grid  ri=0.0000000000 rf=10.0000000000 npts = 10001
    ECPComponentBuilder::buildSemiLocalAndLocal 
    Assuming Hartree unit
   Number of angular momentum channels 2
   Maximum angular momentum channel 1
   Creating a Linear Grid Rmax=1.3100000000
  Using global grid with delta = 0.0010000000
   Making L=1 a local potential with a radial cutoff of 9.9980000000
  NonLocalECPComponent::resize_warrays 
    Non-local pseudopotential parameters
    Maximum angular mementum = 0
    Number of non-local channels = 1
       l(0)=0
    Cutoff radius = 1.3100000000
    Spherical grids and weights: 
             1.0000000000      0.0000000000      0.0000000000        0.0833333333
            -1.0000000000      0.0000000000      0.0000000000        0.0833333333
             0.4472135955      0.8944271910      0.0000000000        0.0833333333
            -0.4472135955      0.7236067977      0.5257311121        0.0833333333
             0.4472135955      0.2763932023      0.8506508084        0.0833333333
            -0.4472135955     -0.2763932023      0.8506508084        0.0833333333
             0.4472135955     -0.7236067977      0.5257311121        0.0833333333
            -0.4472135955     -0.8944271910      0.0000000000        0.0833333333
             0.4472135955     -0.7236067977     -0.5257311121        0.0833333333
            -0.4472135955     -0.2763932023     -0.8506508084        0.0833333333
             0.4472135955      0.2763932023     -0.8506508084        0.0833333333
            -0.4472135955      0.7236067977     -0.5257311121        0.0833333333
    Maximum cutoff radius 1.3100000000
  ... ParticleSet::addTable Reuse Table #1 ion0_e
  QMCHamiltonian::addOperator LocalECP to H, physical Hamiltonian 
  ForceBase::ForceBase
  ... ParticleSet::addTable Reuse Table #1 ion0_e
  ... ParticleSet::addTable Reuse Table #1 ion0_e

  Using NonLocalECP potential 
    Maximum grid on a sphere for NonLocalECPotential: 12
  QMCHamiltonian::addOperator NonLocalECP to H, physical Hamiltonian 

  QMCHamiltonian::add2WalkerProperty added
    4 to P::PropertyList 
    0 to P::Collectables 
    starting Index of the observables in P::PropertyList = 9
  Hamiltonian disables VirtualMoves
ParticleSetPool::randomize 
<init source="ion0" target="e">
</init>
=========================================================
 Summary of QMC systems 
=========================================================
ParticleSetPool has: 

  ParticleSet e : 0 4 5 

    5

    u  1.5632580097e+01  1.3845230019e+01  1.3838224413e+01
    u  1.2861023998e+01  1.3245302406e+01  1.3570795904e+01
    u  1.3588682682e+01  1.3020177080e+01  1.3998472856e+01
    u  1.3332843270e+01  1.4087656017e+01  1.4083613899e+01
    d  1.4591905441e+01  1.3588426548e+01  1.4564334903e+01

  ParticleSet ion0 : 0 1 

    1

    O  1.4172946000e+01  1.4172947410e+01  1.4172948830e+01

  Hamiltonian h0
  Kinetic         Kinetic energy
  ElecElec        CoulombAA source/target e

  LocalECP        LocalECPotential: ion0
  NonLocalECP     NonLocalECPotential: ion0
Loop execution max-interations = 8

=========================================================
  Start QMCFixedSampleLinearOptimize
  File Root O_q1_opt.s000 append = no 
=========================================================
  Skip QMCDriver::putQMCInfo 
  Resetting Properties of the walkers 1 x 13
  Adding 64 walkers to 0 existing sets
  Total number of walkers: 2.0480000000e+03
  Total weight: 2.0480000000e+03

=========================================================
  Start VMCSingleOMP
  File Root O_q1_opt.s000 append = no 
=========================================================
  Using the current 64 walkers.
  Total number of walkers: 2.0480000000e+03
  Total weight: 2.0480000000e+03
  Resetting Properties of the walkers 1 x 13

<vmc function="put">
  qmc_counter=0  my_counter=0
  time step      = 3.0000000000e-01
  blocks         = 200
  steps          = 1
  substeps       = 1
  current        = 0
  target samples = 2.0000000000e+04
  walkers/mpi    = 64

  stepsbetweensamples = 20
<parameter name="blocks" condition="int">200</parameter>
<parameter name="check_properties" condition="int">100</parameter>
<parameter name="checkproperties" condition="int">100</parameter>
<parameter name="current" condition="int">0</parameter>
<parameter name="dmcwalkersperthread" condition="real">1.0000000000e+01</parameter>
<parameter name="maxcpusecs" condition="real">3.6000000000e+05</parameter>
<parameter name="record_configs" condition="int">0</parameter>
<parameter name="record_walkers" condition="int">20</parameter>
<parameter name="recordconfigs" condition="int">0</parameter>
<parameter name="recordwalkers" condition="int">20</parameter>
<parameter name="rewind" condition="int">0</parameter>
<parameter name="samples" condition="real">2.0000000000e+04</parameter>
<parameter name="samplesperthread" condition="real">1.0000000000e+01</parameter>
<parameter name="steps" condition="int">1</parameter>
<parameter name="stepsbetweensamples" condition="int">20</parameter>
<parameter name="store_configs" condition="int">0</parameter>
<parameter name="storeconfigs" condition="int">0</parameter>
<parameter name="sub_steps" condition="int">1</parameter>
<parameter name="substeps" condition="int">1</parameter>
<parameter name="tau" condition="au">3.0000000000e-01</parameter>
<parameter name="time_step" condition="au">3.0000000000e-01</parameter>
<parameter name="timestep" condition="au">3.0000000000e-01</parameter>
<parameter name="use_drift" condition="string">yes</parameter>
<parameter name="usedrift" condition="string">yes</parameter>
<parameter name="walkers" condition="int">64</parameter>
<parameter name="warmup_steps" condition="int">50</parameter>
<parameter name="warmupsteps" condition="int">50</parameter>
  DumpConfig==false Nothing (configurations, state) will be saved.
  Walker Samples are dumped every 20 steps.
</vmc>

 TraceManager::put() 1
  traces requested          : 0
  method allows traces      : 0
  traces available          : 0

  Adding a default LocalEnergyEstimator for the MainEstimator 
 Using QMCCostFunctionOMP::QMCCostFunctionOMP

 TraceManager::put() 1
  traces requested          : 0
  method allows traces      : 0
  traces available          : 0

  Adding a default LocalEnergyEstimator for the MainEstimator 
<optimization-report>
<vmc stage="main" blocks="1">
  CloneManager::makeClones makes 64 clones for W/Psi/H.
  Cloning methods for both Psi and H are used
  Initial partition of walkers 0 1 2 3 4 5 6 7 8 9 10 11 12 13 14 15 16 17 18 19 20 21 22 23 24 25 26 27 28 29 30 31 32 33 34 35 36 37 38 39 40 41 42 43 44 45 46 47 48 49 50 51 52 53 54 55 56 57 58 59 60 61 62 63 64 
  PbyP moves with drift, using VMCUpdatePbyPWithDriftFast

  Total Sample Size   =20480
  Walker distribution on root = 0 1 2 3 4 5 6 7 8 9 10 11 12 13 14 15 16 17 18 19 20 21 22 23 24 25 26 27 28 29 30 31 32 33 34 35 36 37 38 39 40 41 42 43 44 45 46 47 48 49 50 51 52 53 54 55 56 57 58 59 60 61 62 63 64 
  Anonymous Buffer size per walker 302
MEMORY increase 0 MB VMCSingleOMP::resetRun
====================================================
  SimpleFixedNodeBranch::finalize after a VMC block
    QMC counter        = 0
    time step          = 0.3
    reference energy   = -15.2129
    reference variance = 0.99027
====================================================
  Execution time = 5.7927199638e+00
</vmc>
<opt stage="setup">
  <log>
   Reading configurations from h5FileRoot O_q1_opt.s000
  QMCCostFunctionOMP is created with 64
   Loading configuration from MCWalkerConfiguration::SampleStack 
    number of walkers before load 64
  Using Nonlocal PP in Opt: NonLocalECP
    number of walkers after load: 10 10 10 10 10 10 10 10 10 10 10 10 10 10 10 10 10 10 10 10 10 10 10 10 10 10 10 10 10 10 10 10 10 10 10 10 10 10 10 10 10 10 10 10 10 10 10 10 10 10 10 10 10 10 10 10 10 10 10 10 10 10 10 10 
Using buffers for temporary storage in QMCCostFunction.

Memory usage: 
Linear method (approx matrix usage: 4*N^2): 3.2000000000e-03 MB
Deriv,HDerivRecord:      1.5360000000e-01 MB
Buffer memory cost:     MB/walker       MB/total 
Orbitals only:           1.3600000000e-04      8.7040000000e-02
Orbitals + dervs:        4.8800000000e-04      3.1232000000e-01
Inverse:                 0.0000000000e+00      0.0000000000e+00
Determinants:            0.0000000000e+00      0.0000000000e+00
  VMC Eavg = -1.5213990532e+01
  VMC Evar = 9.6886690981e-01
  Total weights = 2.0480000000e+04
  Execution time = 6.1401197500e-02
  </log>
</opt>
<opt stage="main" walkers="20480">
  <log>
Iteration: 1/1
od_largest 2.8648249597e+01
  stabilityBase -1.6000000000e+01
  stabilizerScale 2.0000000000e+00
  Using XS:-1.6000000000e+01 0 0
  Good Step. Largest LM parameter change:4.1171181975e-01
 OldCost: 9.6886690981e-01 NewCost: 7.9741229525e-01 Delta Cost:-1.7145461456e-01
      Current ene:     -1.5254206560e+01
      Current var:     7.9999675226e-01
      Current ene_urw:     -1.5223888761e+01
      Current var_urw: 7.9741229525e-01
Setting new Parameters
ERROR   Execution time = 5.9442482837e+00
  </log>
  <optVariables href="O_q1_opt.s000.opt.xml">
eO_0 -4.1171181975e-01 1 1  ON 0
eO_1 -3.4770977573e-01 1 1  ON 1
eO_2 -2.7131840508e-01 1 1  ON 2
eO_3 -1.9674165442e-01 1 1  ON 3
eO_4 -1.4354566313e-01 1 1  ON 4
eO_5 -1.0427136763e-01 1 1  ON 5
eO_6 -7.4008423045e-02 1 1  ON 6
eO_7 -4.5027333635e-02 1 1  ON 7
uu_b 3.3263599533e-01 0 1  ON 8
ud_b 6.7438944351e-01 0 1  ON 9
  </optVariables>
   Restore the number of walkers to 64, removing -54 walkers.
</opt>
</optimization-report>
  QMC Execution time = 5.9578595912e+00 secs 
  Reusing QMCFixedSampleLinearOptimize
 Using QMCCostFunctionOMP::QMCCostFunctionOMP

=========================================================
  Start QMCFixedSampleLinearOptimize
  File Root O_q1_opt.s001 append = no 
=========================================================
  Skip QMCDriver::putQMCInfo 
  Resetting Properties of the walkers 1 x 13

=========================================================
  Start VMCSingleOMP
  File Root O_q1_opt.s001 append = no 
=========================================================
Using existing walkers 
  Resetting Properties of the walkers 1 x 13

<vmc function="put">
  qmc_counter=1  my_counter=1
  time step      = 3.0000000000e-01
  blocks         = 200
  steps          = 1
  substeps       = 1
  current        = 0
  target samples = 2.0000000000e+04
  walkers/mpi    = 64

  stepsbetweensamples = 20
<parameter name="blocks" condition="int">200</parameter>
<parameter name="check_properties" condition="int">100</parameter>
<parameter name="checkproperties" condition="int">100</parameter>
<parameter name="current" condition="int">0</parameter>
<parameter name="dmcwalkersperthread" condition="real">1.0000000000e+01</parameter>
<parameter name="maxcpusecs" condition="real">3.6000000000e+05</parameter>
<parameter name="record_configs" condition="int">0</parameter>
<parameter name="record_walkers" condition="int">20</parameter>
<parameter name="recordconfigs" condition="int">0</parameter>
<parameter name="recordwalkers" condition="int">20</parameter>
<parameter name="rewind" condition="int">0</parameter>
<parameter name="samples" condition="real">2.0000000000e+04</parameter>
<parameter name="samplesperthread" condition="real">1.0000000000e+01</parameter>
<parameter name="steps" condition="int">1</parameter>
<parameter name="stepsbetweensamples" condition="int">20</parameter>
<parameter name="store_configs" condition="int">0</parameter>
<parameter name="storeconfigs" condition="int">0</parameter>
<parameter name="sub_steps" condition="int">1</parameter>
<parameter name="substeps" condition="int">1</parameter>
<parameter name="tau" condition="au">3.0000000000e-01</parameter>
<parameter name="time_step" condition="au">3.0000000000e-01</parameter>
<parameter name="timestep" condition="au">3.0000000000e-01</parameter>
<parameter name="use_drift" condition="string">yes</parameter>
<parameter name="usedrift" condition="string">yes</parameter>
<parameter name="walkers" condition="int">1</parameter>
<parameter name="warmup_steps" condition="int">50</parameter>
<parameter name="warmupsteps" condition="int">50</parameter>
  DumpConfig==false Nothing (configurations, state) will be saved.
  Walker Samples are dumped every 20 steps.
</vmc>

 TraceManager::put() 1
  traces requested          : 0
  method allows traces      : 0
  traces available          : 0


 TraceManager::put() 1
  traces requested          : 0
  method allows traces      : 0
  traces available          : 0

<optimization-report>
<vmc stage="main" blocks="200">
  Cannot make clones again. Use existing 64 clones
  Initial partition of walkers 0 1 2 3 4 5 6 7 8 9 10 11 12 13 14 15 16 17 18 19 20 21 22 23 24 25 26 27 28 29 30 31 32 33 34 35 36 37 38 39 40 41 42 43 44 45 46 47 48 49 50 51 52 53 54 55 56 57 58 59 60 61 62 63 64 
  Total Sample Size   =20480
  Walker distribution on root = 0 1 2 3 4 5 6 7 8 9 10 11 12 13 14 15 16 17 18 19 20 21 22 23 24 25 26 27 28 29 30 31 32 33 34 35 36 37 38 39 40 41 42 43 44 45 46 47 48 49 50 51 52 53 54 55 56 57 58 59 60 61 62 63 64 
====================================================
  SimpleFixedNodeBranch::finalize after a VMC block
    QMC counter        = 1
    time step          = 0.3
    reference energy   = -15.2706
    reference variance = 0.909609
====================================================
  Execution time = 5.6631912212e+00
</vmc>
<opt stage="setup">
  <log>
   Reading configurations from h5FileRoot O_q1_opt.s001
  QMCCostFunctionOMP is created with 64
   Loading configuration from MCWalkerConfiguration::SampleStack 
    number of walkers before load 64
  Using Nonlocal PP in Opt: NonLocalECP
    number of walkers after load: 10 10 10 10 10 10 10 10 10 10 10 10 10 10 10 10 10 10 10 10 10 10 10 10 10 10 10 10 10 10 10 10 10 10 10 10 10 10 10 10 10 10 10 10 10 10 10 10 10 10 10 10 10 10 10 10 10 10 10 10 10 10 10 10 
Using buffers for temporary storage in QMCCostFunction.

Memory usage: 
Linear method (approx matrix usage: 4*N^2): 3.2000000000e-03 MB
Deriv,HDerivRecord:      1.5360000000e-01 MB
Buffer memory cost:     MB/walker       MB/total 
Orbitals only:           1.3600000000e-04      8.7040000000e-02
Orbitals + dervs:        4.8800000000e-04      3.1232000000e-01
Inverse:                 0.0000000000e+00      0.0000000000e+00
Determinants:            0.0000000000e+00      0.0000000000e+00
  VMC Eavg = -1.5253325435e+01
  VMC Evar = 8.4696096790e-01
  Total weights = 2.0480000000e+04
  Execution time = 5.8871178750e-02
  </log>
</opt>
<opt stage="main" walkers="20480">
  <log>
Iteration: 1/1
od_largest 2.8203904559e+01
  stabilityBase -1.6000000000e+01
  stabilizerScale 1.2892973619e+00
  Using XS:-1.6000000000e+01 0 0
  Good Step. Largest LM parameter change:5.3180555757e-01
 OldCost: 8.4696096790e-01 NewCost: 6.7436333662e-01 Delta Cost:-1.7259763128e-01
      Current ene:     -1.5345404627e+01
      Current var:     7.0214615132e-01
      Current ene_urw:     -1.5297149892e+01
      Current var_urw: 6.7436333662e-01
Setting new Parameters
ERROR   Execution time = 5.8132205400e+00
  </log>
  <optVariables href="O_q1_opt.s001.opt.xml">
eO_0 -9.4351737732e-01 1 1  ON 0
eO_1 -8.0817622381e-01 1 1  ON 1
eO_2 -6.2978917320e-01 1 1  ON 2
eO_3 -4.3558776941e-01 1 1  ON 3
eO_4 -3.0854930361e-01 1 1  ON 4
eO_5 -2.0468721417e-01 1 1  ON 5
eO_6 -1.4963046240e-01 1 1  ON 6
eO_7 -4.3587771517e-02 1 1  ON 7
uu_b 2.3394918236e-01 0 1  ON 8
ud_b 5.2045850608e-01 0 1  ON 9
  </optVariables>
   Restore the number of walkers to 64, removing -54 walkers.
</opt>
</optimization-report>
  QMC Execution time = 5.8259254713e+00 secs 
  Reusing QMCFixedSampleLinearOptimize
 Using QMCCostFunctionOMP::QMCCostFunctionOMP

=========================================================
  Start QMCFixedSampleLinearOptimize
  File Root O_q1_opt.s002 append = no 
=========================================================
  Skip QMCDriver::putQMCInfo 
  Resetting Properties of the walkers 1 x 13

=========================================================
  Start VMCSingleOMP
  File Root O_q1_opt.s002 append = no 
=========================================================
Using existing walkers 
  Resetting Properties of the walkers 1 x 13

<vmc function="put">
  qmc_counter=2  my_counter=2
  time step      = 3.0000000000e-01
  blocks         = 200
  steps          = 1
  substeps       = 1
  current        = 0
  target samples = 2.0000000000e+04
  walkers/mpi    = 64

  stepsbetweensamples = 20
<parameter name="blocks" condition="int">200</parameter>
<parameter name="check_properties" condition="int">100</parameter>
<parameter name="checkproperties" condition="int">100</parameter>
<parameter name="current" condition="int">0</parameter>
<parameter name="dmcwalkersperthread" condition="real">1.0000000000e+01</parameter>
<parameter name="maxcpusecs" condition="real">3.6000000000e+05</parameter>
<parameter name="record_configs" condition="int">0</parameter>
<parameter name="record_walkers" condition="int">20</parameter>
<parameter name="recordconfigs" condition="int">0</parameter>
<parameter name="recordwalkers" condition="int">20</parameter>
<parameter name="rewind" condition="int">0</parameter>
<parameter name="samples" condition="real">2.0000000000e+04</parameter>
<parameter name="samplesperthread" condition="real">1.0000000000e+01</parameter>
<parameter name="steps" condition="int">1</parameter>
<parameter name="stepsbetweensamples" condition="int">20</parameter>
<parameter name="store_configs" condition="int">0</parameter>
<parameter name="storeconfigs" condition="int">0</parameter>
<parameter name="sub_steps" condition="int">1</parameter>
<parameter name="substeps" condition="int">1</parameter>
<parameter name="tau" condition="au">3.0000000000e-01</parameter>
<parameter name="time_step" condition="au">3.0000000000e-01</parameter>
<parameter name="timestep" condition="au">3.0000000000e-01</parameter>
<parameter name="use_drift" condition="string">yes</parameter>
<parameter name="usedrift" condition="string">yes</parameter>
<parameter name="walkers" condition="int">1</parameter>
<parameter name="warmup_steps" condition="int">50</parameter>
<parameter name="warmupsteps" condition="int">50</parameter>
  DumpConfig==false Nothing (configurations, state) will be saved.
  Walker Samples are dumped every 20 steps.
</vmc>

 TraceManager::put() 1
  traces requested          : 0
  method allows traces      : 0
  traces available          : 0


 TraceManager::put() 1
  traces requested          : 0
  method allows traces      : 0
  traces available          : 0

<optimization-report>
<vmc stage="main" blocks="200">
  Cannot make clones again. Use existing 64 clones
  Initial partition of walkers 0 1 2 3 4 5 6 7 8 9 10 11 12 13 14 15 16 17 18 19 20 21 22 23 24 25 26 27 28 29 30 31 32 33 34 35 36 37 38 39 40 41 42 43 44 45 46 47 48 49 50 51 52 53 54 55 56 57 58 59 60 61 62 63 64 
  Total Sample Size   =20480
  Walker distribution on root = 0 1 2 3 4 5 6 7 8 9 10 11 12 13 14 15 16 17 18 19 20 21 22 23 24 25 26 27 28 29 30 31 32 33 34 35 36 37 38 39 40 41 42 43 44 45 46 47 48 49 50 51 52 53 54 55 56 57 58 59 60 61 62 63 64 
====================================================
  SimpleFixedNodeBranch::finalize after a VMC block
    QMC counter        = 2
    time step          = 0.3
    reference energy   = -15.3667
    reference variance = 1.03054
====================================================
  Execution time = 5.7875038263e+00
</vmc>
<opt stage="setup">
  <log>
   Reading configurations from h5FileRoot O_q1_opt.s002
  QMCCostFunctionOMP is created with 64
   Loading configuration from MCWalkerConfiguration::SampleStack 
    number of walkers before load 64
  Using Nonlocal PP in Opt: NonLocalECP
    number of walkers after load: 10 10 10 10 10 10 10 10 10 10 10 10 10 10 10 10 10 10 10 10 10 10 10 10 10 10 10 10 10 10 10 10 10 10 10 10 10 10 10 10 10 10 10 10 10 10 10 10 10 10 10 10 10 10 10 10 10 10 10 10 10 10 10 10 
Using buffers for temporary storage in QMCCostFunction.

Memory usage: 
Linear method (approx matrix usage: 4*N^2): 3.2000000000e-03 MB
Deriv,HDerivRecord:      1.5360000000e-01 MB
Buffer memory cost:     MB/walker       MB/total 
Orbitals only:           1.3600000000e-04      8.7040000000e-02
Orbitals + dervs:        4.8800000000e-04      3.1232000000e-01
Inverse:                 0.0000000000e+00      0.0000000000e+00
Determinants:            0.0000000000e+00      0.0000000000e+00
  VMC Eavg = -1.5355973024e+01
  VMC Evar = 7.3212467473e-01
  Total weights = 2.0480000000e+04
  Execution time = 5.7490720000e-02
  </log>
</opt>
<opt stage="main" walkers="20480">
  <log>
Iteration: 1/1
od_largest 2.4414425138e+01
  stabilityBase -1.6000000000e+01
  stabilizerScale 1.2796782768e+00
  Using XS:-1.6000000000e+01 0 0
  Good Step. Largest LM parameter change:4.0829393677e-02
 OldCost: 7.3212467473e-01 NewCost: 7.0533464429e-01 Delta Cost:-2.6790030444e-02
      Current ene:     -1.5369614071e+01
      Current var:     6.8157822363e-01
      Current ene_urw:     -1.5357999099e+01
      Current var_urw: 7.0533464429e-01
Setting new Parameters
ERROR   Execution time = 5.9386355788e+00
  </log>
  <optVariables href="O_q1_opt.s002.opt.xml">
eO_0 -9.0881853038e-01 1 1  ON 0
eO_1 -8.2237816053e-01 1 1  ON 1
eO_2 -6.4722265592e-01 1 1  ON 2
eO_3 -4.5375925936e-01 1 1  ON 3
eO_4 -3.0513424279e-01 1 1  ON 4
eO_5 -2.0825100955e-01 1 1  ON 5
eO_6 -1.2771102340e-01 1 1  ON 6
eO_7 -8.4417165194e-02 1 1  ON 7
uu_b 2.6165300495e-01 0 1  ON 8
ud_b 5.5731639515e-01 0 1  ON 9
  </optVariables>
   Restore the number of walkers to 64, removing -54 walkers.
</opt>
</optimization-report>
  QMC Execution time = 5.9554445213e+00 secs 
  Reusing QMCFixedSampleLinearOptimize
 Using QMCCostFunctionOMP::QMCCostFunctionOMP

=========================================================
  Start QMCFixedSampleLinearOptimize
  File Root O_q1_opt.s003 append = no 
=========================================================
  Skip QMCDriver::putQMCInfo 
  Resetting Properties of the walkers 1 x 13

=========================================================
  Start VMCSingleOMP
  File Root O_q1_opt.s003 append = no 
=========================================================
Using existing walkers 
  Resetting Properties of the walkers 1 x 13

<vmc function="put">
  qmc_counter=3  my_counter=3
  time step      = 3.0000000000e-01
  blocks         = 200
  steps          = 1
  substeps       = 1
  current        = 0
  target samples = 2.0000000000e+04
  walkers/mpi    = 64

  stepsbetweensamples = 20
<parameter name="blocks" condition="int">200</parameter>
<parameter name="check_properties" condition="int">100</parameter>
<parameter name="checkproperties" condition="int">100</parameter>
<parameter name="current" condition="int">0</parameter>
<parameter name="dmcwalkersperthread" condition="real">1.0000000000e+01</parameter>
<parameter name="maxcpusecs" condition="real">3.6000000000e+05</parameter>
<parameter name="record_configs" condition="int">0</parameter>
<parameter name="record_walkers" condition="int">20</parameter>
<parameter name="recordconfigs" condition="int">0</parameter>
<parameter name="recordwalkers" condition="int">20</parameter>
<parameter name="rewind" condition="int">0</parameter>
<parameter name="samples" condition="real">2.0000000000e+04</parameter>
<parameter name="samplesperthread" condition="real">1.0000000000e+01</parameter>
<parameter name="steps" condition="int">1</parameter>
<parameter name="stepsbetweensamples" condition="int">20</parameter>
<parameter name="store_configs" condition="int">0</parameter>
<parameter name="storeconfigs" condition="int">0</parameter>
<parameter name="sub_steps" condition="int">1</parameter>
<parameter name="substeps" condition="int">1</parameter>
<parameter name="tau" condition="au">3.0000000000e-01</parameter>
<parameter name="time_step" condition="au">3.0000000000e-01</parameter>
<parameter name="timestep" condition="au">3.0000000000e-01</parameter>
<parameter name="use_drift" condition="string">yes</parameter>
<parameter name="usedrift" condition="string">yes</parameter>
<parameter name="walkers" condition="int">1</parameter>
<parameter name="warmup_steps" condition="int">50</parameter>
<parameter name="warmupsteps" condition="int">50</parameter>
  DumpConfig==false Nothing (configurations, state) will be saved.
  Walker Samples are dumped every 20 steps.
</vmc>

 TraceManager::put() 1
  traces requested          : 0
  method allows traces      : 0
  traces available          : 0


 TraceManager::put() 1
  traces requested          : 0
  method allows traces      : 0
  traces available          : 0

<optimization-report>
<vmc stage="main" blocks="200">
  Cannot make clones again. Use existing 64 clones
  Initial partition of walkers 0 1 2 3 4 5 6 7 8 9 10 11 12 13 14 15 16 17 18 19 20 21 22 23 24 25 26 27 28 29 30 31 32 33 34 35 36 37 38 39 40 41 42 43 44 45 46 47 48 49 50 51 52 53 54 55 56 57 58 59 60 61 62 63 64 
  Total Sample Size   =20480
  Walker distribution on root = 0 1 2 3 4 5 6 7 8 9 10 11 12 13 14 15 16 17 18 19 20 21 22 23 24 25 26 27 28 29 30 31 32 33 34 35 36 37 38 39 40 41 42 43 44 45 46 47 48 49 50 51 52 53 54 55 56 57 58 59 60 61 62 63 64 
====================================================
  SimpleFixedNodeBranch::finalize after a VMC block
    QMC counter        = 3
    time step          = 0.3
    reference energy   = -15.3863
    reference variance = 0.813101
====================================================
  Execution time = 5.6651990050e+00
</vmc>
<opt stage="setup">
  <log>
   Reading configurations from h5FileRoot O_q1_opt.s003
  QMCCostFunctionOMP is created with 64
   Loading configuration from MCWalkerConfiguration::SampleStack 
    number of walkers before load 64
  Using Nonlocal PP in Opt: NonLocalECP
    number of walkers after load: 10 10 10 10 10 10 10 10 10 10 10 10 10 10 10 10 10 10 10 10 10 10 10 10 10 10 10 10 10 10 10 10 10 10 10 10 10 10 10 10 10 10 10 10 10 10 10 10 10 10 10 10 10 10 10 10 10 10 10 10 10 10 10 10 
Using buffers for temporary storage in QMCCostFunction.

Memory usage: 
Linear method (approx matrix usage: 4*N^2): 3.2000000000e-03 MB
Deriv,HDerivRecord:      1.5360000000e-01 MB
Buffer memory cost:     MB/walker       MB/total 
Orbitals only:           1.3600000000e-04      8.7040000000e-02
Orbitals + dervs:        4.8800000000e-04      3.1232000000e-01
Inverse:                 0.0000000000e+00      0.0000000000e+00
Determinants:            0.0000000000e+00      0.0000000000e+00
  VMC Eavg = -1.5361726038e+01
  VMC Evar = 6.4992170322e-01
  Total weights = 2.0480000000e+04
  Execution time = 5.6302362500e-02
  </log>
</opt>
<opt stage="main" walkers="20480">
  <log>
Iteration: 1/1
od_largest 2.1307807281e+01
  stabilityBase -1.6000000000e+01
  stabilizerScale 1.2706049030e+00
  Using XS:-1.6000000000e+01 0 0
  Good Step. Largest LM parameter change:1.0740908228e-01
 OldCost: 6.4992170322e-01 NewCost: 6.1975402098e-01 Delta Cost:-3.0167682248e-02
      Current ene:     -1.5371332603e+01
      Current var:     6.2293679807e-01
      Current ene_urw:     -1.5363584241e+01
      Current var_urw: 6.1975402098e-01
Setting new Parameters
ERROR   Execution time = 5.8158609387e+00
  </log>
  <optVariables href="O_q1_opt.s003.opt.xml">
eO_0 -1.0162276127e+00 1 1  ON 0
eO_1 -8.8548372759e-01 1 1  ON 1
eO_2 -7.3599933972e-01 1 1  ON 2
eO_3 -5.3124673734e-01 1 1  ON 3
eO_4 -3.7772051681e-01 1 1  ON 4
eO_5 -2.4520312380e-01 1 1  ON 5
eO_6 -1.8544013926e-01 1 1  ON 6
eO_7 -1.0736606385e-01 1 1  ON 7
uu_b 2.8935868256e-01 0 1  ON 8
ud_b 5.8471191211e-01 0 1  ON 9
  </optVariables>
   Restore the number of walkers to 64, removing -54 walkers.
</opt>
</optimization-report>
  QMC Execution time = 5.8343799350e+00 secs 
  Reusing QMCFixedSampleLinearOptimize
 Using QMCCostFunctionOMP::QMCCostFunctionOMP

=========================================================
  Start QMCFixedSampleLinearOptimize
  File Root O_q1_opt.s004 append = no 
=========================================================
  Skip QMCDriver::putQMCInfo 
  Resetting Properties of the walkers 1 x 13

=========================================================
  Start VMCSingleOMP
  File Root O_q1_opt.s004 append = no 
=========================================================
Using existing walkers 
  Resetting Properties of the walkers 1 x 13

<vmc function="put">
  qmc_counter=4  my_counter=4
  time step      = 3.0000000000e-01
  blocks         = 200
  steps          = 1
  substeps       = 1
  current        = 0
  target samples = 2.0000000000e+04
  walkers/mpi    = 64

  stepsbetweensamples = 20
<parameter name="blocks" condition="int">200</parameter>
<parameter name="check_properties" condition="int">100</parameter>
<parameter name="checkproperties" condition="int">100</parameter>
<parameter name="current" condition="int">0</parameter>
<parameter name="dmcwalkersperthread" condition="real">1.0000000000e+01</parameter>
<parameter name="maxcpusecs" condition="real">3.6000000000e+05</parameter>
<parameter name="record_configs" condition="int">0</parameter>
<parameter name="record_walkers" condition="int">20</parameter>
<parameter name="recordconfigs" condition="int">0</parameter>
<parameter name="recordwalkers" condition="int">20</parameter>
<parameter name="rewind" condition="int">0</parameter>
<parameter name="samples" condition="real">2.0000000000e+04</parameter>
<parameter name="samplesperthread" condition="real">1.0000000000e+01</parameter>
<parameter name="steps" condition="int">1</parameter>
<parameter name="stepsbetweensamples" condition="int">20</parameter>
<parameter name="store_configs" condition="int">0</parameter>
<parameter name="storeconfigs" condition="int">0</parameter>
<parameter name="sub_steps" condition="int">1</parameter>
<parameter name="substeps" condition="int">1</parameter>
<parameter name="tau" condition="au">3.0000000000e-01</parameter>
<parameter name="time_step" condition="au">3.0000000000e-01</parameter>
<parameter name="timestep" condition="au">3.0000000000e-01</parameter>
<parameter name="use_drift" condition="string">yes</parameter>
<parameter name="usedrift" condition="string">yes</parameter>
<parameter name="walkers" condition="int">1</parameter>
<parameter name="warmup_steps" condition="int">50</parameter>
<parameter name="warmupsteps" condition="int">50</parameter>
  DumpConfig==false Nothing (configurations, state) will be saved.
  Walker Samples are dumped every 20 steps.
</vmc>

 TraceManager::put() 1
  traces requested          : 0
  method allows traces      : 0
  traces available          : 0


 TraceManager::put() 1
  traces requested          : 0
  method allows traces      : 0
  traces available          : 0

<optimization-report>
<vmc stage="main" blocks="200">
  Cannot make clones again. Use existing 64 clones
  Initial partition of walkers 0 1 2 3 4 5 6 7 8 9 10 11 12 13 14 15 16 17 18 19 20 21 22 23 24 25 26 27 28 29 30 31 32 33 34 35 36 37 38 39 40 41 42 43 44 45 46 47 48 49 50 51 52 53 54 55 56 57 58 59 60 61 62 63 64 
  Total Sample Size   =20480
  Walker distribution on root = 0 1 2 3 4 5 6 7 8 9 10 11 12 13 14 15 16 17 18 19 20 21 22 23 24 25 26 27 28 29 30 31 32 33 34 35 36 37 38 39 40 41 42 43 44 45 46 47 48 49 50 51 52 53 54 55 56 57 58 59 60 61 62 63 64 
====================================================
  SimpleFixedNodeBranch::finalize after a VMC block
    QMC counter        = 4
    time step          = 0.3
    reference energy   = -15.3754
    reference variance = 0.773704
====================================================
  Execution time = 5.6671467375e+00
</vmc>
<opt stage="setup">
  <log>
   Reading configurations from h5FileRoot O_q1_opt.s004
  QMCCostFunctionOMP is created with 64
   Loading configuration from MCWalkerConfiguration::SampleStack 
    number of walkers before load 64
  Using Nonlocal PP in Opt: NonLocalECP
    number of walkers after load: 10 10 10 10 10 10 10 10 10 10 10 10 10 10 10 10 10 10 10 10 10 10 10 10 10 10 10 10 10 10 10 10 10 10 10 10 10 10 10 10 10 10 10 10 10 10 10 10 10 10 10 10 10 10 10 10 10 10 10 10 10 10 10 10 
Using buffers for temporary storage in QMCCostFunction.

Memory usage: 
Linear method (approx matrix usage: 4*N^2): 3.2000000000e-03 MB
Deriv,HDerivRecord:      1.5360000000e-01 MB
Buffer memory cost:     MB/walker       MB/total 
Orbitals only:           1.3600000000e-04      8.7040000000e-02
Orbitals + dervs:        4.8800000000e-04      3.1232000000e-01
Inverse:                 0.0000000000e+00      0.0000000000e+00
Determinants:            0.0000000000e+00      0.0000000000e+00
  VMC Eavg = -1.5375772970e+01
  VMC Evar = 6.4581680684e-01
  Total weights = 2.0480000000e+04
  Execution time = 5.3573888750e-02
  </log>
</opt>
<opt stage="main" walkers="20480">
  <log>
Iteration: 1/1
od_largest 2.2714366725e+01
  stabilityBase -1.6000000000e+01
  stabilizerScale 1.2748665080e+00
  Using XS:-1.6000000000e+01 0 0
  Good Step. Largest LM parameter change:1.8347427323e-02
 OldCost: 6.4581680684e-01 NewCost: 6.3681202988e-01 Delta Cost:-9.0047769549e-03
      Current ene:     -1.5377978319e+01
      Current var:     6.3192033791e-01
      Current ene_urw:     -1.5376054513e+01
      Current var_urw: 6.3681202988e-01
Setting new Parameters
ERROR   Execution time = 5.8173591413e+00
  </log>
  <optVariables href="O_q1_opt.s004.opt.xml">
eO_0 -1.0038276706e+00 1 1  ON 0
eO_1 -9.0084647036e-01 1 1  ON 1
eO_2 -7.4035506240e-01 1 1  ON 2
eO_3 -5.4557550017e-01 1 1  ON 3
eO_4 -3.7914566807e-01 1 1  ON 4
eO_5 -2.5149331182e-01 1 1  ON 5
eO_6 -1.6709271194e-01 1 1  ON 6
eO_7 -9.8453283125e-02 1 1  ON 7
uu_b 2.9505374998e-01 0 1  ON 8
ud_b 5.9072006296e-01 0 1  ON 9
  </optVariables>
   Restore the number of walkers to 64, removing -54 walkers.
</opt>
</optimization-report>
  QMC Execution time = 5.8301744462e+00 secs 
  Reusing QMCFixedSampleLinearOptimize
 Using QMCCostFunctionOMP::QMCCostFunctionOMP

=========================================================
  Start QMCFixedSampleLinearOptimize
  File Root O_q1_opt.s005 append = no 
=========================================================
  Skip QMCDriver::putQMCInfo 
  Resetting Properties of the walkers 1 x 13

=========================================================
  Start VMCSingleOMP
  File Root O_q1_opt.s005 append = no 
=========================================================
Using existing walkers 
  Resetting Properties of the walkers 1 x 13

<vmc function="put">
  qmc_counter=5  my_counter=5
  time step      = 3.0000000000e-01
  blocks         = 200
  steps          = 1
  substeps       = 1
  current        = 0
  target samples = 2.0000000000e+04
  walkers/mpi    = 64

  stepsbetweensamples = 20
<parameter name="blocks" condition="int">200</parameter>
<parameter name="check_properties" condition="int">100</parameter>
<parameter name="checkproperties" condition="int">100</parameter>
<parameter name="current" condition="int">0</parameter>
<parameter name="dmcwalkersperthread" condition="real">1.0000000000e+01</parameter>
<parameter name="maxcpusecs" condition="real">3.6000000000e+05</parameter>
<parameter name="record_configs" condition="int">0</parameter>
<parameter name="record_walkers" condition="int">20</parameter>
<parameter name="recordconfigs" condition="int">0</parameter>
<parameter name="recordwalkers" condition="int">20</parameter>
<parameter name="rewind" condition="int">0</parameter>
<parameter name="samples" condition="real">2.0000000000e+04</parameter>
<parameter name="samplesperthread" condition="real">1.0000000000e+01</parameter>
<parameter name="steps" condition="int">1</parameter>
<parameter name="stepsbetweensamples" condition="int">20</parameter>
<parameter name="store_configs" condition="int">0</parameter>
<parameter name="storeconfigs" condition="int">0</parameter>
<parameter name="sub_steps" condition="int">1</parameter>
<parameter name="substeps" condition="int">1</parameter>
<parameter name="tau" condition="au">3.0000000000e-01</parameter>
<parameter name="time_step" condition="au">3.0000000000e-01</parameter>
<parameter name="timestep" condition="au">3.0000000000e-01</parameter>
<parameter name="use_drift" condition="string">yes</parameter>
<parameter name="usedrift" condition="string">yes</parameter>
<parameter name="walkers" condition="int">1</parameter>
<parameter name="warmup_steps" condition="int">50</parameter>
<parameter name="warmupsteps" condition="int">50</parameter>
  DumpConfig==false Nothing (configurations, state) will be saved.
  Walker Samples are dumped every 20 steps.
</vmc>

 TraceManager::put() 1
  traces requested          : 0
  method allows traces      : 0
  traces available          : 0


 TraceManager::put() 1
  traces requested          : 0
  method allows traces      : 0
  traces available          : 0

<optimization-report>
<vmc stage="main" blocks="200">
  Cannot make clones again. Use existing 64 clones
  Initial partition of walkers 0 1 2 3 4 5 6 7 8 9 10 11 12 13 14 15 16 17 18 19 20 21 22 23 24 25 26 27 28 29 30 31 32 33 34 35 36 37 38 39 40 41 42 43 44 45 46 47 48 49 50 51 52 53 54 55 56 57 58 59 60 61 62 63 64 
  Total Sample Size   =20480
  Walker distribution on root = 0 1 2 3 4 5 6 7 8 9 10 11 12 13 14 15 16 17 18 19 20 21 22 23 24 25 26 27 28 29 30 31 32 33 34 35 36 37 38 39 40 41 42 43 44 45 46 47 48 49 50 51 52 53 54 55 56 57 58 59 60 61 62 63 64 
====================================================
  SimpleFixedNodeBranch::finalize after a VMC block
    QMC counter        = 5
    time step          = 0.3
    reference energy   = -15.3889
    reference variance = 0.810495
====================================================
  Execution time = 5.6615598838e+00
</vmc>
<opt stage="setup">
  <log>
   Reading configurations from h5FileRoot O_q1_opt.s005
  QMCCostFunctionOMP is created with 64
   Loading configuration from MCWalkerConfiguration::SampleStack 
    number of walkers before load 64
  Using Nonlocal PP in Opt: NonLocalECP
    number of walkers after load: 10 10 10 10 10 10 10 10 10 10 10 10 10 10 10 10 10 10 10 10 10 10 10 10 10 10 10 10 10 10 10 10 10 10 10 10 10 10 10 10 10 10 10 10 10 10 10 10 10 10 10 10 10 10 10 10 10 10 10 10 10 10 10 10 
Using buffers for temporary storage in QMCCostFunction.

Memory usage: 
Linear method (approx matrix usage: 4*N^2): 3.2000000000e-03 MB
Deriv,HDerivRecord:      1.5360000000e-01 MB
Buffer memory cost:     MB/walker       MB/total 
Orbitals only:           1.3600000000e-04      8.7040000000e-02
Orbitals + dervs:        4.8800000000e-04      3.1232000000e-01
Inverse:                 0.0000000000e+00      0.0000000000e+00
Determinants:            0.0000000000e+00      0.0000000000e+00
  VMC Eavg = -1.5380259628e+01
  VMC Evar = 6.0728825913e-01
  Total weights = 2.0480000000e+04
  Execution time = 5.1193977500e-02
  </log>
</opt>
<opt stage="main" walkers="20480">
  <log>
Iteration: 1/1
od_largest 2.0322577368e+01
  stabilityBase -1.6000000000e+01
  stabilizerScale 1.2674488302e+00
  Using XS:-1.6000000000e+01 0 0
  Good Step. Largest LM parameter change:1.6606019969e-01
 OldCost: 6.0728825913e-01 NewCost: 6.0358074651e-01 Delta Cost:-3.7075126252e-03
      Current ene:     -1.5384434186e+01
      Current var:     6.0722160409e-01
      Current ene_urw:     -1.5381822470e+01
      Current var_urw: 6.0358074651e-01
Setting new Parameters
ERROR   Execution time = 5.8075643588e+00
  </log>
  <optVariables href="O_q1_opt.s005.opt.xml">
eO_0 -9.8513575098e-01 1 1  ON 0
eO_1 -8.8489173208e-01 1 1  ON 1
eO_2 -7.2217127426e-01 1 1  ON 2
eO_3 -5.1668232047e-01 1 1  ON 3
eO_4 -3.2612948954e-01 1 1  ON 4
eO_5 -1.6478279079e-01 1 1  ON 5
eO_6 -6.1152104528e-02 1 1  ON 6
eO_7 6.7606916566e-02 1 1  ON 7
uu_b 2.9286612446e-01 0 1  ON 8
ud_b 5.7794738972e-01 0 1  ON 9
  </optVariables>
   Restore the number of walkers to 64, removing -54 walkers.
</opt>
</optimization-report>
  QMC Execution time = 5.8262143575e+00 secs 
  Reusing QMCFixedSampleLinearOptimize
 Using QMCCostFunctionOMP::QMCCostFunctionOMP

=========================================================
  Start QMCFixedSampleLinearOptimize
  File Root O_q1_opt.s006 append = no 
=========================================================
  Skip QMCDriver::putQMCInfo 
  Resetting Properties of the walkers 1 x 13

=========================================================
  Start VMCSingleOMP
  File Root O_q1_opt.s006 append = no 
=========================================================
Using existing walkers 
  Resetting Properties of the walkers 1 x 13

<vmc function="put">
  qmc_counter=6  my_counter=6
  time step      = 3.0000000000e-01
  blocks         = 200
  steps          = 1
  substeps       = 1
  current        = 0
  target samples = 2.0000000000e+04
  walkers/mpi    = 64

  stepsbetweensamples = 20
<parameter name="blocks" condition="int">200</parameter>
<parameter name="check_properties" condition="int">100</parameter>
<parameter name="checkproperties" condition="int">100</parameter>
<parameter name="current" condition="int">0</parameter>
<parameter name="dmcwalkersperthread" condition="real">1.0000000000e+01</parameter>
<parameter name="maxcpusecs" condition="real">3.6000000000e+05</parameter>
<parameter name="record_configs" condition="int">0</parameter>
<parameter name="record_walkers" condition="int">20</parameter>
<parameter name="recordconfigs" condition="int">0</parameter>
<parameter name="recordwalkers" condition="int">20</parameter>
<parameter name="rewind" condition="int">0</parameter>
<parameter name="samples" condition="real">2.0000000000e+04</parameter>
<parameter name="samplesperthread" condition="real">1.0000000000e+01</parameter>
<parameter name="steps" condition="int">1</parameter>
<parameter name="stepsbetweensamples" condition="int">20</parameter>
<parameter name="store_configs" condition="int">0</parameter>
<parameter name="storeconfigs" condition="int">0</parameter>
<parameter name="sub_steps" condition="int">1</parameter>
<parameter name="substeps" condition="int">1</parameter>
<parameter name="tau" condition="au">3.0000000000e-01</parameter>
<parameter name="time_step" condition="au">3.0000000000e-01</parameter>
<parameter name="timestep" condition="au">3.0000000000e-01</parameter>
<parameter name="use_drift" condition="string">yes</parameter>
<parameter name="usedrift" condition="string">yes</parameter>
<parameter name="walkers" condition="int">1</parameter>
<parameter name="warmup_steps" condition="int">50</parameter>
<parameter name="warmupsteps" condition="int">50</parameter>
  DumpConfig==false Nothing (configurations, state) will be saved.
  Walker Samples are dumped every 20 steps.
</vmc>

 TraceManager::put() 1
  traces requested          : 0
  method allows traces      : 0
  traces available          : 0


 TraceManager::put() 1
  traces requested          : 0
  method allows traces      : 0
  traces available          : 0

<optimization-report>
<vmc stage="main" blocks="200">
  Cannot make clones again. Use existing 64 clones
  Initial partition of walkers 0 1 2 3 4 5 6 7 8 9 10 11 12 13 14 15 16 17 18 19 20 21 22 23 24 25 26 27 28 29 30 31 32 33 34 35 36 37 38 39 40 41 42 43 44 45 46 47 48 49 50 51 52 53 54 55 56 57 58 59 60 61 62 63 64 
  Total Sample Size   =20480
  Walker distribution on root = 0 1 2 3 4 5 6 7 8 9 10 11 12 13 14 15 16 17 18 19 20 21 22 23 24 25 26 27 28 29 30 31 32 33 34 35 36 37 38 39 40 41 42 43 44 45 46 47 48 49 50 51 52 53 54 55 56 57 58 59 60 61 62 63 64 
====================================================
  SimpleFixedNodeBranch::finalize after a VMC block
    QMC counter        = 6
    time step          = 0.3
    reference energy   = -15.3745
    reference variance = 0.747269
====================================================
  Execution time = 5.6681714038e+00
</vmc>
<opt stage="setup">
  <log>
   Reading configurations from h5FileRoot O_q1_opt.s006
  QMCCostFunctionOMP is created with 64
   Loading configuration from MCWalkerConfiguration::SampleStack 
    number of walkers before load 64
  Using Nonlocal PP in Opt: NonLocalECP
    number of walkers after load: 10 10 10 10 10 10 10 10 10 10 10 10 10 10 10 10 10 10 10 10 10 10 10 10 10 10 10 10 10 10 10 10 10 10 10 10 10 10 10 10 10 10 10 10 10 10 10 10 10 10 10 10 10 10 10 10 10 10 10 10 10 10 10 10 
Using buffers for temporary storage in QMCCostFunction.

Memory usage: 
Linear method (approx matrix usage: 4*N^2): 3.2000000000e-03 MB
Deriv,HDerivRecord:      1.5360000000e-01 MB
Buffer memory cost:     MB/walker       MB/total 
Orbitals only:           1.3600000000e-04      8.7040000000e-02
Orbitals + dervs:        4.8800000000e-04      3.1232000000e-01
Inverse:                 0.0000000000e+00      0.0000000000e+00
Determinants:            0.0000000000e+00      0.0000000000e+00
  VMC Eavg = -1.5374377453e+01
  VMC Evar = 5.8887951810e-01
  Total weights = 2.0480000000e+04
  Execution time = 5.5349212500e-02
  </log>
</opt>
<opt stage="main" walkers="20480">
  <log>
Iteration: 1/1
od_largest 2.2934686163e+01
  stabilityBase -1.6000000000e+01
  stabilizerScale 1.2755100296e+00
  Using XS:-1.6000000000e+01 0 0
  Good Step. Largest LM parameter change:1.6414379504e-01
 OldCost: 5.8887951810e-01 NewCost: 5.8580706171e-01 Delta Cost:-3.0724563887e-03
      Current ene:     -1.5376037177e+01
      Current var:     5.8330040162e-01
      Current ene_urw:     -1.5375158415e+01
      Current var_urw: 5.8580706171e-01
Setting new Parameters
ERROR   Execution time = 5.8192897012e+00
  </log>
  <optVariables href="O_q1_opt.s006.opt.xml">
eO_0 -1.1106402140e+00 1 1  ON 0
eO_1 -1.0147562012e+00 1 1  ON 1
eO_2 -8.5120416504e-01 1 1  ON 2
eO_3 -6.4438873630e-01 1 1  ON 3
eO_4 -4.5587768863e-01 1 1  ON 4
eO_5 -2.9383018438e-01 1 1  ON 5
eO_6 -1.4420970495e-01 1 1  ON 6
eO_7 -9.6536878478e-02 1 1  ON 7
uu_b 2.9907683965e-01 0 1  ON 8
ud_b 5.8175606415e-01 0 1  ON 9
  </optVariables>
   Restore the number of walkers to 64, removing -54 walkers.
</opt>
</optimization-report>
  QMC Execution time = 5.8320130525e+00 secs 
  Reusing QMCFixedSampleLinearOptimize
 Using QMCCostFunctionOMP::QMCCostFunctionOMP

=========================================================
  Start QMCFixedSampleLinearOptimize
  File Root O_q1_opt.s007 append = no 
=========================================================
  Skip QMCDriver::putQMCInfo 
  Resetting Properties of the walkers 1 x 13

=========================================================
  Start VMCSingleOMP
  File Root O_q1_opt.s007 append = no 
=========================================================
Using existing walkers 
  Resetting Properties of the walkers 1 x 13

<vmc function="put">
  qmc_counter=7  my_counter=7
  time step      = 3.0000000000e-01
  blocks         = 200
  steps          = 1
  substeps       = 1
  current        = 0
  target samples = 2.0000000000e+04
  walkers/mpi    = 64

  stepsbetweensamples = 20
<parameter name="blocks" condition="int">200</parameter>
<parameter name="check_properties" condition="int">100</parameter>
<parameter name="checkproperties" condition="int">100</parameter>
<parameter name="current" condition="int">0</parameter>
<parameter name="dmcwalkersperthread" condition="real">1.0000000000e+01</parameter>
<parameter name="maxcpusecs" condition="real">3.6000000000e+05</parameter>
<parameter name="record_configs" condition="int">0</parameter>
<parameter name="record_walkers" condition="int">20</parameter>
<parameter name="recordconfigs" condition="int">0</parameter>
<parameter name="recordwalkers" condition="int">20</parameter>
<parameter name="rewind" condition="int">0</parameter>
<parameter name="samples" condition="real">2.0000000000e+04</parameter>
<parameter name="samplesperthread" condition="real">1.0000000000e+01</parameter>
<parameter name="steps" condition="int">1</parameter>
<parameter name="stepsbetweensamples" condition="int">20</parameter>
<parameter name="store_configs" condition="int">0</parameter>
<parameter name="storeconfigs" condition="int">0</parameter>
<parameter name="sub_steps" condition="int">1</parameter>
<parameter name="substeps" condition="int">1</parameter>
<parameter name="tau" condition="au">3.0000000000e-01</parameter>
<parameter name="time_step" condition="au">3.0000000000e-01</parameter>
<parameter name="timestep" condition="au">3.0000000000e-01</parameter>
<parameter name="use_drift" condition="string">yes</parameter>
<parameter name="usedrift" condition="string">yes</parameter>
<parameter name="walkers" condition="int">1</parameter>
<parameter name="warmup_steps" condition="int">50</parameter>
<parameter name="warmupsteps" condition="int">50</parameter>
  DumpConfig==false Nothing (configurations, state) will be saved.
  Walker Samples are dumped every 20 steps.
</vmc>

 TraceManager::put() 1
  traces requested          : 0
  method allows traces      : 0
  traces available          : 0


 TraceManager::put() 1
  traces requested          : 0
  method allows traces      : 0
  traces available          : 0

<optimization-report>
<vmc stage="main" blocks="200">
  Cannot make clones again. Use existing 64 clones
  Initial partition of walkers 0 1 2 3 4 5 6 7 8 9 10 11 12 13 14 15 16 17 18 19 20 21 22 23 24 25 26 27 28 29 30 31 32 33 34 35 36 37 38 39 40 41 42 43 44 45 46 47 48 49 50 51 52 53 54 55 56 57 58 59 60 61 62 63 64 
  Total Sample Size   =20480
  Walker distribution on root = 0 1 2 3 4 5 6 7 8 9 10 11 12 13 14 15 16 17 18 19 20 21 22 23 24 25 26 27 28 29 30 31 32 33 34 35 36 37 38 39 40 41 42 43 44 45 46 47 48 49 50 51 52 53 54 55 56 57 58 59 60 61 62 63 64 
====================================================
  SimpleFixedNodeBranch::finalize after a VMC block
    QMC counter        = 7
    time step          = 0.3
    reference energy   = -15.3611
    reference variance = 0.740048
====================================================
  Execution time = 5.6627657187e+00
</vmc>
<opt stage="setup">
  <log>
   Reading configurations from h5FileRoot O_q1_opt.s007
  QMCCostFunctionOMP is created with 64
   Loading configuration from MCWalkerConfiguration::SampleStack 
    number of walkers before load 64
  Using Nonlocal PP in Opt: NonLocalECP
    number of walkers after load: 10 10 10 10 10 10 10 10 10 10 10 10 10 10 10 10 10 10 10 10 10 10 10 10 10 10 10 10 10 10 10 10 10 10 10 10 10 10 10 10 10 10 10 10 10 10 10 10 10 10 10 10 10 10 10 10 10 10 10 10 10 10 10 10 
Using buffers for temporary storage in QMCCostFunction.

Memory usage: 
Linear method (approx matrix usage: 4*N^2): 3.2000000000e-03 MB
Deriv,HDerivRecord:      1.5360000000e-01 MB
Buffer memory cost:     MB/walker       MB/total 
Orbitals only:           1.3600000000e-04      8.7040000000e-02
Orbitals + dervs:        4.8800000000e-04      3.1232000000e-01
Inverse:                 0.0000000000e+00      0.0000000000e+00
Determinants:            0.0000000000e+00      0.0000000000e+00
  VMC Eavg = -1.5385865277e+01
  VMC Evar = 6.1554567994e-01
  Total weights = 2.0480000000e+04
  Execution time = 5.6698011250e-02
  </log>
</opt>
<opt stage="main" walkers="20480">
  <log>
Iteration: 1/1
od_largest 2.1565384348e+01
  stabilityBase -1.6000000000e+01
  stabilizerScale 1.2714059635e+00
  Using XS:-1.6000000000e+01 0 0
  Good Step. Largest LM parameter change:1.0957107221e-01
 OldCost: 6.1554567994e-01 NewCost: 6.1062605845e-01 Delta Cost:-4.9196214944e-03
      Current ene:     -1.5386133604e+01
      Current var:     6.1083321252e-01
      Current ene_urw:     -1.5385845893e+01
      Current var_urw: 6.1062605845e-01
Setting new Parameters
ERROR   Execution time = 5.8140588462e+00
  </log>
  <optVariables href="O_q1_opt.s007.opt.xml">
eO_0 -1.2202112863e+00 1 1  ON 0
eO_1 -1.1057362357e+00 1 1  ON 1
eO_2 -9.4309234661e-01 1 1  ON 2
eO_3 -7.3279622721e-01 1 1  ON 3
eO_4 -5.4184140747e-01 1 1  ON 4
eO_5 -3.6322405514e-01 1 1  ON 5
eO_6 -2.4177591501e-01 1 1  ON 6
eO_7 -9.1326940573e-02 1 1  ON 7
uu_b 2.9440789803e-01 0 1  ON 8
ud_b 5.7724099488e-01 0 1  ON 9
  </optVariables>
   Restore the number of walkers to 64, removing -54 walkers.
</opt>
</optimization-report>
  QMC Execution time = 5.8333881013e+00 secs 
Loop execution max-interations = 4
  Reusing QMCFixedSampleLinearOptimize
 Using QMCCostFunctionOMP::QMCCostFunctionOMP

=========================================================
  Start QMCFixedSampleLinearOptimize
  File Root O_q1_opt.s008 append = no 
=========================================================
  Skip QMCDriver::putQMCInfo 
  Resetting Properties of the walkers 1 x 13

=========================================================
  Start VMCSingleOMP
  File Root O_q1_opt.s008 append = no 
=========================================================
  Using the current 64 walkers.
  Total number of walkers: 2.0480000000e+03
  Total weight: 2.0480000000e+03
  Resetting Properties of the walkers 1 x 13

<vmc function="put">
  qmc_counter=0  my_counter=8
  time step      = 3.0000000000e-01
  blocks         = 200
  steps          = 4
  substeps       = 1
  current        = 0
  target samples = 8.0000000000e+04
  walkers/mpi    = 64

  stepsbetweensamples = 20
<parameter name="blocks" condition="int">200</parameter>
<parameter name="check_properties" condition="int">100</parameter>
<parameter name="checkproperties" condition="int">100</parameter>
<parameter name="current" condition="int">0</parameter>
<parameter name="dmcwalkersperthread" condition="real">4.0000000000e+01</parameter>
<parameter name="maxcpusecs" condition="real">3.6000000000e+05</parameter>
<parameter name="record_configs" condition="int">0</parameter>
<parameter name="record_walkers" condition="int">20</parameter>
<parameter name="recordconfigs" condition="int">0</parameter>
<parameter name="recordwalkers" condition="int">20</parameter>
<parameter name="rewind" condition="int">0</parameter>
<parameter name="samples" condition="real">8.0000000000e+04</parameter>
<parameter name="samplesperthread" condition="real">4.0000000000e+01</parameter>
<parameter name="steps" condition="int">4</parameter>
<parameter name="stepsbetweensamples" condition="int">20</parameter>
<parameter name="store_configs" condition="int">0</parameter>
<parameter name="storeconfigs" condition="int">0</parameter>
<parameter name="sub_steps" condition="int">1</parameter>
<parameter name="substeps" condition="int">1</parameter>
<parameter name="tau" condition="au">3.0000000000e-01</parameter>
<parameter name="time_step" condition="au">3.0000000000e-01</parameter>
<parameter name="timestep" condition="au">3.0000000000e-01</parameter>
<parameter name="use_drift" condition="string">yes</parameter>
<parameter name="usedrift" condition="string">yes</parameter>
<parameter name="walkers" condition="int">64</parameter>
<parameter name="warmup_steps" condition="int">50</parameter>
<parameter name="warmupsteps" condition="int">50</parameter>
  DumpConfig==false Nothing (configurations, state) will be saved.
  Walker Samples are dumped every 20 steps.
</vmc>

 TraceManager::put() 1
  traces requested          : 0
  method allows traces      : 0
  traces available          : 0


 TraceManager::put() 1
  traces requested          : 0
  method allows traces      : 0
  traces available          : 0

<optimization-report>
<vmc stage="main" blocks="200">
  Cannot make clones again. Use existing 64 clones
  Initial partition of walkers 0 1 2 3 4 5 6 7 8 9 10 11 12 13 14 15 16 17 18 19 20 21 22 23 24 25 26 27 28 29 30 31 32 33 34 35 36 37 38 39 40 41 42 43 44 45 46 47 48 49 50 51 52 53 54 55 56 57 58 59 60 61 62 63 64 
  Total Sample Size   =81920
  Walker distribution on root = 0 1 2 3 4 5 6 7 8 9 10 11 12 13 14 15 16 17 18 19 20 21 22 23 24 25 26 27 28 29 30 31 32 33 34 35 36 37 38 39 40 41 42 43 44 45 46 47 48 49 50 51 52 53 54 55 56 57 58 59 60 61 62 63 64 
====================================================
  SimpleFixedNodeBranch::finalize after a VMC block
    QMC counter        = 8
    time step          = 0.3
    reference energy   = -15.3905
    reference variance = 0.736199
====================================================
  Execution time = 6.3021497600e+00
</vmc>
<opt stage="setup">
  <log>
   Reading configurations from h5FileRoot O_q1_opt.s008
  QMCCostFunctionOMP is created with 64
   Loading configuration from MCWalkerConfiguration::SampleStack 
    number of walkers before load 64
  Using Nonlocal PP in Opt: NonLocalECP
    number of walkers after load: 40 40 40 40 40 40 40 40 40 40 40 40 40 40 40 40 40 40 40 40 40 40 40 40 40 40 40 40 40 40 40 40 40 40 40 40 40 40 40 40 40 40 40 40 40 40 40 40 40 40 40 40 40 40 40 40 40 40 40 40 40 40 40 40 
Using buffers for temporary storage in QMCCostFunction.

Memory usage: 
Linear method (approx matrix usage: 4*N^2): 3.2000000000e-03 MB
Deriv,HDerivRecord:      6.1440000000e-01 MB
Buffer memory cost:     MB/walker       MB/total 
Orbitals only:           1.3600000000e-04      3.4816000000e-01
Orbitals + dervs:        4.8800000000e-04      1.2492800000e+00
Inverse:                 0.0000000000e+00      0.0000000000e+00
Determinants:            0.0000000000e+00      0.0000000000e+00
  VMC Eavg = -1.5379194493e+01
  VMC Evar = 5.9830880255e-01
  Total weights = 8.1920000000e+04
  Execution time = 2.3427305375e-01
  </log>
</opt>
<opt stage="main" walkers="81920">
  <log>
Iteration: 1/1
od_largest 1.8744005465e+01
  stabilityBase -1.6000000000e+01
  stabilizerScale 1.2620582662e+00
  Using XS:-1.6000000000e+01 0 0
  Good Step. Largest LM parameter change:3.1120234976e-03
 OldCost: 5.9830880255e-01 NewCost: 5.9811198059e-01 Delta Cost:-1.9682196338e-04
      Current ene:     -1.5379247375e+01
      Current var:     5.9732070129e-01
      Current ene_urw:     -1.5379175975e+01
      Current var_urw: 5.9811198059e-01
Setting new Parameters
ERROR   Execution time = 6.8499192600e+00
  </log>
  <optVariables href="O_q1_opt.s008.opt.xml">
eO_0 -1.2170992628e+00 1 1  ON 0
eO_1 -1.1070304288e+00 1 1  ON 1
eO_2 -9.4357698042e-01 1 1  ON 2
eO_3 -7.3406480376e-01 1 1  ON 3
eO_4 -5.4246512096e-01 1 1  ON 4
eO_5 -3.6524915583e-01 1 1  ON 5
eO_6 -2.3909399717e-01 1 1  ON 6
eO_7 -9.3061998731e-02 1 1  ON 7
uu_b 2.9538615415e-01 0 1  ON 8
ud_b 5.7790918212e-01 0 1  ON 9
  </optVariables>
   Restore the number of walkers to 64, removing -24 walkers.
</opt>
</optimization-report>
  QMC Execution time = 6.8628464150e+00 secs 
  Reusing QMCFixedSampleLinearOptimize
 Using QMCCostFunctionOMP::QMCCostFunctionOMP

=========================================================
  Start QMCFixedSampleLinearOptimize
  File Root O_q1_opt.s009 append = no 
=========================================================
  Skip QMCDriver::putQMCInfo 
  Resetting Properties of the walkers 1 x 13

=========================================================
  Start VMCSingleOMP
  File Root O_q1_opt.s009 append = no 
=========================================================
Using existing walkers 
  Resetting Properties of the walkers 1 x 13

<vmc function="put">
  qmc_counter=1  my_counter=9
  time step      = 3.0000000000e-01
  blocks         = 200
  steps          = 4
  substeps       = 1
  current        = 0
  target samples = 8.0000000000e+04
  walkers/mpi    = 64

  stepsbetweensamples = 20
<parameter name="blocks" condition="int">200</parameter>
<parameter name="check_properties" condition="int">100</parameter>
<parameter name="checkproperties" condition="int">100</parameter>
<parameter name="current" condition="int">0</parameter>
<parameter name="dmcwalkersperthread" condition="real">4.0000000000e+01</parameter>
<parameter name="maxcpusecs" condition="real">3.6000000000e+05</parameter>
<parameter name="record_configs" condition="int">0</parameter>
<parameter name="record_walkers" condition="int">20</parameter>
<parameter name="recordconfigs" condition="int">0</parameter>
<parameter name="recordwalkers" condition="int">20</parameter>
<parameter name="rewind" condition="int">0</parameter>
<parameter name="samples" condition="real">8.0000000000e+04</parameter>
<parameter name="samplesperthread" condition="real">4.0000000000e+01</parameter>
<parameter name="steps" condition="int">4</parameter>
<parameter name="stepsbetweensamples" condition="int">20</parameter>
<parameter name="store_configs" condition="int">0</parameter>
<parameter name="storeconfigs" condition="int">0</parameter>
<parameter name="sub_steps" condition="int">1</parameter>
<parameter name="substeps" condition="int">1</parameter>
<parameter name="tau" condition="au">3.0000000000e-01</parameter>
<parameter name="time_step" condition="au">3.0000000000e-01</parameter>
<parameter name="timestep" condition="au">3.0000000000e-01</parameter>
<parameter name="use_drift" condition="string">yes</parameter>
<parameter name="usedrift" condition="string">yes</parameter>
<parameter name="walkers" condition="int">1</parameter>
<parameter name="warmup_steps" condition="int">50</parameter>
<parameter name="warmupsteps" condition="int">50</parameter>
  DumpConfig==false Nothing (configurations, state) will be saved.
  Walker Samples are dumped every 20 steps.
</vmc>

 TraceManager::put() 1
  traces requested          : 0
  method allows traces      : 0
  traces available          : 0


 TraceManager::put() 1
  traces requested          : 0
  method allows traces      : 0
  traces available          : 0

<optimization-report>
<vmc stage="main" blocks="200">
  Cannot make clones again. Use existing 64 clones
  Initial partition of walkers 0 1 2 3 4 5 6 7 8 9 10 11 12 13 14 15 16 17 18 19 20 21 22 23 24 25 26 27 28 29 30 31 32 33 34 35 36 37 38 39 40 41 42 43 44 45 46 47 48 49 50 51 52 53 54 55 56 57 58 59 60 61 62 63 64 
  Total Sample Size   =81920
  Walker distribution on root = 0 1 2 3 4 5 6 7 8 9 10 11 12 13 14 15 16 17 18 19 20 21 22 23 24 25 26 27 28 29 30 31 32 33 34 35 36 37 38 39 40 41 42 43 44 45 46 47 48 49 50 51 52 53 54 55 56 57 58 59 60 61 62 63 64 
====================================================
  SimpleFixedNodeBranch::finalize after a VMC block
    QMC counter        = 9
    time step          = 0.3
    reference energy   = -15.3757
    reference variance = 0.751366
====================================================
  Execution time = 6.3021722950e+00
</vmc>
<opt stage="setup">
  <log>
   Reading configurations from h5FileRoot O_q1_opt.s009
  QMCCostFunctionOMP is created with 64
   Loading configuration from MCWalkerConfiguration::SampleStack 
    number of walkers before load 64
  Using Nonlocal PP in Opt: NonLocalECP
    number of walkers after load: 40 40 40 40 40 40 40 40 40 40 40 40 40 40 40 40 40 40 40 40 40 40 40 40 40 40 40 40 40 40 40 40 40 40 40 40 40 40 40 40 40 40 40 40 40 40 40 40 40 40 40 40 40 40 40 40 40 40 40 40 40 40 40 40 
Using buffers for temporary storage in QMCCostFunction.

Memory usage: 
Linear method (approx matrix usage: 4*N^2): 3.2000000000e-03 MB
Deriv,HDerivRecord:      6.1440000000e-01 MB
Buffer memory cost:     MB/walker       MB/total 
Orbitals only:           1.3600000000e-04      3.4816000000e-01
Orbitals + dervs:        4.8800000000e-04      1.2492800000e+00
Inverse:                 0.0000000000e+00      0.0000000000e+00
Determinants:            0.0000000000e+00      0.0000000000e+00
  VMC Eavg = -1.5379164943e+01
  VMC Evar = 6.1870880743e-01
  Total weights = 8.1920000000e+04
  Execution time = 2.3491655000e-01
  </log>
</opt>
<opt stage="main" walkers="81920">
  <log>
Iteration: 1/1
od_largest 2.0855222847e+01
  stabilityBase -1.6000000000e+01
  stabilizerScale 1.2691736275e+00
  Using XS:-1.6000000000e+01 0 0
  Good Step. Largest LM parameter change:3.1728490239e-03
 OldCost: 6.1870880743e-01 NewCost: 6.1866756141e-01 Delta Cost:-4.1246024858e-05
      Current ene:     -1.5379179831e+01
      Current var:     6.1822732265e-01
      Current ene_urw:     -1.5379143407e+01
      Current var_urw: 6.1866756141e-01
Setting new Parameters
ERROR   Execution time = 6.8487413188e+00
  </log>
  <optVariables href="O_q1_opt.s009.opt.xml">
eO_0 -1.2178065306e+00 1 1  ON 0
eO_1 -1.1097133232e+00 1 1  ON 1
eO_2 -9.4592895507e-01 1 1  ON 2
eO_3 -7.3692642751e-01 1 1  ON 3
eO_4 -5.4489534753e-01 1 1  ON 4
eO_5 -3.6842200485e-01 1 1  ON 5
eO_6 -2.3935701757e-01 1 1  ON 6
eO_7 -9.5619178335e-02 1 1  ON 7
uu_b 2.9595080511e-01 0 1  ON 8
ud_b 5.7826906979e-01 0 1  ON 9
  </optVariables>
   Restore the number of walkers to 64, removing -24 walkers.
</opt>
</optimization-report>
  QMC Execution time = 6.8653496100e+00 secs 
  Reusing QMCFixedSampleLinearOptimize
 Using QMCCostFunctionOMP::QMCCostFunctionOMP

=========================================================
  Start QMCFixedSampleLinearOptimize
  File Root O_q1_opt.s010 append = no 
=========================================================
  Skip QMCDriver::putQMCInfo 
  Resetting Properties of the walkers 1 x 13

=========================================================
  Start VMCSingleOMP
  File Root O_q1_opt.s010 append = no 
=========================================================
Using existing walkers 
  Resetting Properties of the walkers 1 x 13

<vmc function="put">
  qmc_counter=2  my_counter=10
  time step      = 3.0000000000e-01
  blocks         = 200
  steps          = 4
  substeps       = 1
  current        = 0
  target samples = 8.0000000000e+04
  walkers/mpi    = 64

  stepsbetweensamples = 20
<parameter name="blocks" condition="int">200</parameter>
<parameter name="check_properties" condition="int">100</parameter>
<parameter name="checkproperties" condition="int">100</parameter>
<parameter name="current" condition="int">0</parameter>
<parameter name="dmcwalkersperthread" condition="real">4.0000000000e+01</parameter>
<parameter name="maxcpusecs" condition="real">3.6000000000e+05</parameter>
<parameter name="record_configs" condition="int">0</parameter>
<parameter name="record_walkers" condition="int">20</parameter>
<parameter name="recordconfigs" condition="int">0</parameter>
<parameter name="recordwalkers" condition="int">20</parameter>
<parameter name="rewind" condition="int">0</parameter>
<parameter name="samples" condition="real">8.0000000000e+04</parameter>
<parameter name="samplesperthread" condition="real">4.0000000000e+01</parameter>
<parameter name="steps" condition="int">4</parameter>
<parameter name="stepsbetweensamples" condition="int">20</parameter>
<parameter name="store_configs" condition="int">0</parameter>
<parameter name="storeconfigs" condition="int">0</parameter>
<parameter name="sub_steps" condition="int">1</parameter>
<parameter name="substeps" condition="int">1</parameter>
<parameter name="tau" condition="au">3.0000000000e-01</parameter>
<parameter name="time_step" condition="au">3.0000000000e-01</parameter>
<parameter name="timestep" condition="au">3.0000000000e-01</parameter>
<parameter name="use_drift" condition="string">yes</parameter>
<parameter name="usedrift" condition="string">yes</parameter>
<parameter name="walkers" condition="int">1</parameter>
<parameter name="warmup_steps" condition="int">50</parameter>
<parameter name="warmupsteps" condition="int">50</parameter>
  DumpConfig==false Nothing (configurations, state) will be saved.
  Walker Samples are dumped every 20 steps.
</vmc>

 TraceManager::put() 1
  traces requested          : 0
  method allows traces      : 0
  traces available          : 0


 TraceManager::put() 1
  traces requested          : 0
  method allows traces      : 0
  traces available          : 0

<optimization-report>
<vmc stage="main" blocks="200">
  Cannot make clones again. Use existing 64 clones
  Initial partition of walkers 0 1 2 3 4 5 6 7 8 9 10 11 12 13 14 15 16 17 18 19 20 21 22 23 24 25 26 27 28 29 30 31 32 33 34 35 36 37 38 39 40 41 42 43 44 45 46 47 48 49 50 51 52 53 54 55 56 57 58 59 60 61 62 63 64 
  Total Sample Size   =81920
  Walker distribution on root = 0 1 2 3 4 5 6 7 8 9 10 11 12 13 14 15 16 17 18 19 20 21 22 23 24 25 26 27 28 29 30 31 32 33 34 35 36 37 38 39 40 41 42 43 44 45 46 47 48 49 50 51 52 53 54 55 56 57 58 59 60 61 62 63 64 
====================================================
  SimpleFixedNodeBranch::finalize after a VMC block
    QMC counter        = 10
    time step          = 0.3
    reference energy   = -15.3982
    reference variance = 0.798271
====================================================
  Execution time = 6.2968088612e+00
</vmc>
<opt stage="setup">
  <log>
   Reading configurations from h5FileRoot O_q1_opt.s010
  QMCCostFunctionOMP is created with 64
   Loading configuration from MCWalkerConfiguration::SampleStack 
    number of walkers before load 64
  Using Nonlocal PP in Opt: NonLocalECP
    number of walkers after load: 40 40 40 40 40 40 40 40 40 40 40 40 40 40 40 40 40 40 40 40 40 40 40 40 40 40 40 40 40 40 40 40 40 40 40 40 40 40 40 40 40 40 40 40 40 40 40 40 40 40 40 40 40 40 40 40 40 40 40 40 40 40 40 40 
Using buffers for temporary storage in QMCCostFunction.

Memory usage: 
Linear method (approx matrix usage: 4*N^2): 3.2000000000e-03 MB
Deriv,HDerivRecord:      6.1440000000e-01 MB
Buffer memory cost:     MB/walker       MB/total 
Orbitals only:           1.3600000000e-04      3.4816000000e-01
Orbitals + dervs:        4.8800000000e-04      1.2492800000e+00
Inverse:                 0.0000000000e+00      0.0000000000e+00
Determinants:            0.0000000000e+00      0.0000000000e+00
  VMC Eavg = -1.5382940430e+01
  VMC Evar = 6.0687597163e-01
  Total weights = 8.1920000000e+04
  Execution time = 2.2470273000e-01
  </log>
</opt>
<opt stage="main" walkers="81920">
  <log>
Iteration: 1/1
od_largest 1.9449620835e+01
  stabilityBase -1.6000000000e+01
  stabilizerScale 1.2645218384e+00
  Using XS:-1.6000000000e+01 0 0
  Good Step. Largest LM parameter change:2.7277963807e-02
 OldCost: 6.0687597163e-01 NewCost: 6.0669171380e-01 Delta Cost:-1.8425782802e-04
      Current ene:     -1.5383109860e+01
      Current var:     6.0532792755e-01
      Current ene_urw:     -1.5383001872e+01
      Current var_urw: 6.0669171380e-01
Setting new Parameters
ERROR   Execution time = 6.8324733500e+00
  </log>
  <optVariables href="O_q1_opt.s010.opt.xml">
eO_0 -1.2358625987e+00 1 1  ON 0
eO_1 -1.1309865595e+00 1 1  ON 1
eO_2 -9.6712427968e-01 1 1  ON 2
eO_3 -7.5871585947e-01 1 1  ON 3
eO_4 -5.6631319877e-01 1 1  ON 4
eO_5 -3.9196746155e-01 1 1  ON 5
eO_6 -2.5269184863e-01 1 1  ON 6
eO_7 -1.2289714214e-01 1 1  ON 7
uu_b 2.9825479456e-01 0 1  ON 8
ud_b 5.7948157683e-01 0 1  ON 9
  </optVariables>
   Restore the number of walkers to 64, removing -24 walkers.
</opt>
</optimization-report>
  QMC Execution time = 6.8505088263e+00 secs 
  Reusing QMCFixedSampleLinearOptimize
 Using QMCCostFunctionOMP::QMCCostFunctionOMP

=========================================================
  Start QMCFixedSampleLinearOptimize
  File Root O_q1_opt.s011 append = no 
=========================================================
  Skip QMCDriver::putQMCInfo 
  Resetting Properties of the walkers 1 x 13

=========================================================
  Start VMCSingleOMP
  File Root O_q1_opt.s011 append = no 
=========================================================
Using existing walkers 
  Resetting Properties of the walkers 1 x 13

<vmc function="put">
  qmc_counter=3  my_counter=11
  time step      = 3.0000000000e-01
  blocks         = 200
  steps          = 4
  substeps       = 1
  current        = 0
  target samples = 8.0000000000e+04
  walkers/mpi    = 64

  stepsbetweensamples = 20
<parameter name="blocks" condition="int">200</parameter>
<parameter name="check_properties" condition="int">100</parameter>
<parameter name="checkproperties" condition="int">100</parameter>
<parameter name="current" condition="int">0</parameter>
<parameter name="dmcwalkersperthread" condition="real">4.0000000000e+01</parameter>
<parameter name="maxcpusecs" condition="real">3.6000000000e+05</parameter>
<parameter name="record_configs" condition="int">0</parameter>
<parameter name="record_walkers" condition="int">20</parameter>
<parameter name="recordconfigs" condition="int">0</parameter>
<parameter name="recordwalkers" condition="int">20</parameter>
<parameter name="rewind" condition="int">0</parameter>
<parameter name="samples" condition="real">8.0000000000e+04</parameter>
<parameter name="samplesperthread" condition="real">4.0000000000e+01</parameter>
<parameter name="steps" condition="int">4</parameter>
<parameter name="stepsbetweensamples" condition="int">20</parameter>
<parameter name="store_configs" condition="int">0</parameter>
<parameter name="storeconfigs" condition="int">0</parameter>
<parameter name="sub_steps" condition="int">1</parameter>
<parameter name="substeps" condition="int">1</parameter>
<parameter name="tau" condition="au">3.0000000000e-01</parameter>
<parameter name="time_step" condition="au">3.0000000000e-01</parameter>
<parameter name="timestep" condition="au">3.0000000000e-01</parameter>
<parameter name="use_drift" condition="string">yes</parameter>
<parameter name="usedrift" condition="string">yes</parameter>
<parameter name="walkers" condition="int">1</parameter>
<parameter name="warmup_steps" condition="int">50</parameter>
<parameter name="warmupsteps" condition="int">50</parameter>
  DumpConfig==false Nothing (configurations, state) will be saved.
  Walker Samples are dumped every 20 steps.
</vmc>

 TraceManager::put() 1
  traces requested          : 0
  method allows traces      : 0
  traces available          : 0


 TraceManager::put() 1
  traces requested          : 0
  method allows traces      : 0
  traces available          : 0

<optimization-report>
<vmc stage="main" blocks="200">
  Cannot make clones again. Use existing 64 clones
  Initial partition of walkers 0 1 2 3 4 5 6 7 8 9 10 11 12 13 14 15 16 17 18 19 20 21 22 23 24 25 26 27 28 29 30 31 32 33 34 35 36 37 38 39 40 41 42 43 44 45 46 47 48 49 50 51 52 53 54 55 56 57 58 59 60 61 62 63 64 
  Total Sample Size   =81920
  Walker distribution on root = 0 1 2 3 4 5 6 7 8 9 10 11 12 13 14 15 16 17 18 19 20 21 22 23 24 25 26 27 28 29 30 31 32 33 34 35 36 37 38 39 40 41 42 43 44 45 46 47 48 49 50 51 52 53 54 55 56 57 58 59 60 61 62 63 64 
====================================================
  SimpleFixedNodeBranch::finalize after a VMC block
    QMC counter        = 11
    time step          = 0.3
    reference energy   = -15.3804
    reference variance = 0.746336
====================================================
  Execution time = 6.3394548075e+00
</vmc>
<opt stage="setup">
  <log>
   Reading configurations from h5FileRoot O_q1_opt.s011
  QMCCostFunctionOMP is created with 64
   Loading configuration from MCWalkerConfiguration::SampleStack 
    number of walkers before load 64
  Using Nonlocal PP in Opt: NonLocalECP
    number of walkers after load: 40 40 40 40 40 40 40 40 40 40 40 40 40 40 40 40 40 40 40 40 40 40 40 40 40 40 40 40 40 40 40 40 40 40 40 40 40 40 40 40 40 40 40 40 40 40 40 40 40 40 40 40 40 40 40 40 40 40 40 40 40 40 40 40 
Using buffers for temporary storage in QMCCostFunction.

Memory usage: 
Linear method (approx matrix usage: 4*N^2): 3.2000000000e-03 MB
Deriv,HDerivRecord:      6.1440000000e-01 MB
Buffer memory cost:     MB/walker       MB/total 
Orbitals only:           1.3600000000e-04      3.4816000000e-01
Orbitals + dervs:        4.8800000000e-04      1.2492800000e+00
Inverse:                 0.0000000000e+00      0.0000000000e+00
Determinants:            0.0000000000e+00      0.0000000000e+00
  VMC Eavg = -1.5380028985e+01
  VMC Evar = 6.1297167546e-01
  Total weights = 8.1920000000e+04
  Execution time = 2.2267254375e-01
  </log>
</opt>
<opt stage="main" walkers="81920">
  <log>
Iteration: 1/1
od_largest 1.9721036063e+01
  stabilityBase -1.6000000000e+01
  stabilizerScale 1.2654457258e+00
  Using XS:-1.6000000000e+01 0 0
  Good Step. Largest LM parameter change:7.9645926227e-02
 OldCost: 6.1297167546e-01 NewCost: 6.1256701771e-01 Delta Cost:-4.0465774501e-04
      Current ene:     -1.5379727588e+01
      Current var:     6.1528701413e-01
      Current ene_urw:     -1.5380124342e+01
      Current var_urw: 6.1256701771e-01
Setting new Parameters
ERROR   Execution time = 6.8715511413e+00
  </log>
  <optVariables href="O_q1_opt.s011.opt.xml">
eO_0 -1.1606692737e+00 1 1  ON 0
eO_1 -1.0515437323e+00 1 1  ON 1
eO_2 -8.8747835345e-01 1 1  ON 2
eO_3 -6.8109156585e-01 1 1  ON 3
eO_4 -4.8956608427e-01 1 1  ON 4
eO_5 -3.1659444147e-01 1 1  ON 5
eO_6 -1.8807125705e-01 1 1  ON 6
eO_7 -5.1766041563e-02 1 1  ON 7
uu_b 2.9825023689e-01 0 1  ON 8
ud_b 5.7812598292e-01 0 1  ON 9
  </optVariables>
   Restore the number of walkers to 64, removing -24 walkers.
</opt>
</optimization-report>
  QMC Execution time = 6.8886850100e+00 secs 
  Total Execution time = 7.4964475984e+01 secs

=========================================================
  A new xml input file : O_q1_opt.s011.cont.xml
