Tue Jun 24 18:31:20 UTC 2014
  Input file(s): O.q1.dmc.in.xml 

=====================================================
                    QMCPACK 1.0.0 

  (c) Copyright 2003-  QMCPACK developers            

  Subversion branch 6312
  Last modified     2014-05-19 15:22:38 +0000 (Mon, 19 May 2014)
=====================================================
  Global options 
  async_swap=0 : using blocking send/recv for walker swaps 

  MPI Nodes            = 32
  MPI Nodes per group  = 32
  MPI Group ID         = 0
  OMP_NUM_THREADS      = 64
  Input XML = O.q1.dmc.in.xml

  Project = O_q1_dmc
  date    = 2014-06-24 18:31:25 UTC
  host    = Q02-I4-J07.vesta.itd
  user    = krogel

  DO NOT READ DENSITY
  Offset for the random number seeds based on time 1021
  Random number offset = 1021  seeds = 8147-28163
  ParticleSetPool::putLattice
  Create Global SuperCell 
  Simulation cell radius = 14.172946
  Wigner-Seitz    radius = 14.172946
<unitcell>
<parameter name="lattice">
     28.3458919900      0.0000000000      0.0000000000
      0.0000000000     28.3458948300      0.0000000000
      0.0000000000      0.0000000000     28.3458976600
</parameter>
<parameter name="bconds">  n  n  n </parameter>
<note>
Volume (A^3) = 22775.6360477081
Reciprocal vectors without 2*pi.
g_1 =       0.0352784806      0.0000000000      0.0000000000
g_2 =       0.0000000000      0.0352784770      0.0000000000
g_3 =       0.0000000000      0.0000000000      0.0352784735
Metric tensor in real-space.
h_1 = 803.4895927087 0.0000000000 0.0000000000 
h_2 = 0.0000000000 803.4897537134 0.0000000000 
h_3 = 0.0000000000 0.0000000000 803.4899141512 
Metric tensor in g-space.
h_1 = 0.0491337012 0.0000000000 0.0000000000 
h_2 = 0.0000000000 0.0491336914 0.0000000000 
h_3 = 0.0000000000 0.0000000000 0.0491336816 
</note>
<note>
	Long-range breakup parameters:
	rc*kc = 15.0000000000; rc = 1000000.0000000000; kc = 0.0000000000

</note>
</unitcell>
  ParticleSetPool::put
  Creating e particleset
  Initializing the lattice of e by the global supercell
  XMLParticleParser::putSpecial
  All the species have the same mass 1.0000000000
Particles are grouped. Safe to use groups 
e
  ParticleSetPool::put
  Creating ion0 particleset
  Initializing the lattice of ion0 by the global supercell
  XMLParticleParser::putSpecial
  All the species have the same mass 29164.3928678000
Particles are grouped. Safe to use groups 
ion0
 Adding WavefunctionFactory for psi0
  WaveFunctionFactory::build
building sposet collection of type bspline
  BasisSetFactory::createBasisSet
EinsplineSetBuilder:  using libeinspline for B-spline orbitals.

Built BasisSetBuilder "bspline" of type bspline
  Building SPOSet "spo_u" with bspline BasisSetBuilder
TOKEN=0 createSPOSetFromXML /soft/applications/qmcpack/src/QMCWaveFunctions/EinsplineSetBuilder_createSPOs.cpp 42
  Distance table for AA: source/target = e
    PBC=open Orthorhombic=NA
 using Cartesian coordinates with 
  ... ParticleSet::addTable Create Table #0 e_e
  Distance table for AB: source = ion0 target = e
    PBC=open Orthorhombic=NA
 using Cartesian coordinates 
  ... ParticleSet::addTable Create Table #1 ion0_e
  Reading 4 orbitals from HDF5 file.
TOKEN=1 ReadOrbitalInfo /soft/applications/qmcpack/src/QMCWaveFunctions/EinsplineSetBuilderOld.cpp 34
  HDF5 orbital file version 2.0.0
TOKEN=2 ReadOrbitalInfo_ESHDF /soft/applications/qmcpack/src/QMCWaveFunctions/EinsplineSetBuilderESHDF.fft.cpp 47
  Reading orbital file in ESHDF format.
  ESHDF orbital file version 2.0.0
  Lattice = 
    [ 28.345892  0.000000  0.000000
       0.000000 28.345895  0.000000
       0.000000  0.000000 28.345898 ]
TOKEN=3 CheckLattice /soft/applications/qmcpack/src/QMCWaveFunctions/EinsplineSetBuilderCommon.cpp 100
  SuperLattice = 
    [ 28.345892  0.000000  0.000000
       0.000000 28.345895  0.000000
       0.000000  0.000000 28.345898 ]
bands=8, elecs=5, spins=2, twists=1, muffin tins=0, core states=0
atomic orbital=0
Atom type(0) = 8
   Skip initialization of the density
TIMER  EinsplineSetBuilder::ReadOrbitalInfo 0.0459102194
TIMER  EinsplineSetBuilder::BroadcastOrbitalInfo 0.0001026275
Found 1 distinct supercell twists.
number of things
1
1
Super twist #0:  [   0.00000   0.00000   0.00000 ]
  Using supercell twist 0:  [   0.00000   0.00000   0.00000]
Using 1 copies of twist angle [-0.000, -0.000, -0.000]
Using real orbitals.
TOKEN=4 TileIons /soft/applications/qmcpack/src/QMCWaveFunctions/EinsplineSetBuilderCommon.cpp 295
TOKEN=5 OccupyBands /soft/applications/qmcpack/src/QMCWaveFunctions/EinsplineSetBuilderCommon.cpp 763
TOKEN=6 OccupyBands_ESHDF /soft/applications/qmcpack/src/QMCWaveFunctions/EinsplineSetBuilderESHDF.fft.cpp 308
Sorting the bands now:
We will read 4 distinct orbitals.
There are 0 core states and 4 valence states.
Rcut = 0.0000000000
dilation = 1
TOKEN=7 bcastSortBands /soft/applications/qmcpack/src/QMCWaveFunctions/einspline_helper.hpp 407
BandInfoGroup::selectBands bigspace has 8 distinct orbitals 
BandInfoGroup::selectBands using distinct orbitals [0,4)
  Number of distinct bands 4
  First Band index 0
  First SPO index 0
  Size of SPOs 4
  SplineC2XAdoptorReader::create_spline_set(spin,SPE*)
  AdoptorName = SplineR2RAdoptor
  Using real einspline table
NumDistinctOrbitals 4 numOrbs = 4
  TwistIndex = 0 TwistAngle      -0.0000000000     -0.0000000000     -0.0000000000
   HalfG =                  0                 0                 0
TOKEN=8 ReadGvectors_ESHDF /soft/applications/qmcpack/src/QMCWaveFunctions/EinsplineSetBuilderReadBands_ESHDF.cpp 658
B-spline mesh factor is 1.0000000000
B-spline mesh size is (256, 256, 256)
Maxmimum number of Gvecs 1088527
  Using meshsize=               256               256               256
  vs input meshsize=               256               256               256
  Time to read the table in einspline.tile_100010001.spin_0.tw_0.l0u4.g256x256x256.h5 = 0.0060392456
  SplineAdoptorReader initialize_spline_pio 7.9772261775 sec
MEMORY increase 265 MB BsplineSetReder
   Using Identity for the LCOrbitalSet 
  Building SPOSet "spo_d" with bspline BasisSetBuilder
TOKEN=9 createSPOSetFromXML /soft/applications/qmcpack/src/QMCWaveFunctions/EinsplineSetBuilder_createSPOs.cpp 42
  ... ParticleSet::addTable Reuse Table #1 ion0_e
TOKEN=10 OccupyBands /soft/applications/qmcpack/src/QMCWaveFunctions/EinsplineSetBuilderCommon.cpp 763
TOKEN=11 OccupyBands_ESHDF /soft/applications/qmcpack/src/QMCWaveFunctions/EinsplineSetBuilderESHDF.fft.cpp 308
Sorting the bands now:
We will read 0 distinct orbitals.
There are 0 core states and 0 valence states.
Rcut = 0.0000000000
dilation = 1
TOKEN=12 bcastSortBands /soft/applications/qmcpack/src/QMCWaveFunctions/einspline_helper.hpp 407
BandInfoGroup::selectBands bigspace has 8 distinct orbitals 
BandInfoGroup::selectBands using distinct orbitals [0,1)
  Number of distinct bands 1
  First Band index 0
  First SPO index 0
  Size of SPOs 1
  SplineC2XAdoptorReader::create_spline_set(spin,SPE*)
  AdoptorName = SplineR2RAdoptor
  Using real einspline table
NumDistinctOrbitals 1 numOrbs = 1
  TwistIndex = 0 TwistAngle      -0.0000000000     -0.0000000000     -0.0000000000
   HalfG =                  0                 0                 0
TOKEN=13 ReadGvectors_ESHDF /soft/applications/qmcpack/src/QMCWaveFunctions/EinsplineSetBuilderReadBands_ESHDF.cpp 658
B-spline mesh factor is 1.0000000000
B-spline mesh size is (256, 256, 256)
Maxmimum number of Gvecs 1088527
  Using meshsize=               256               256               256
  vs input meshsize=               256               256               256
  Time to read the table in einspline.tile_100010001.spin_1.tw_0.l0u1.g256x256x256.h5 = 0.0058960631
  SplineAdoptorReader initialize_spline_pio 7.1486843925 sec
MEMORY increase 66 MB BsplineSetReder
   Using Identity for the LCOrbitalSet 
  WaveFunctionFactory::addFermionTerm
  SlaterDetBuilder::put(xmlNodePtr)
  SlaterDetBuilder::putDeterminant(xmlNodePtr,int)
  Creating a determinant updet group=0 sposet=spo_u
  Reusing a SPO set spo_u

  SlaterDetBuilder::putDeterminant(xmlNodePtr,int)
  Creating a determinant downdet group=1 sposet=spo_d
  Reusing a SPO set spo_d

  FermionWF=SlaterDet
  JastrowBuilder::addOneBody(xmlNodePtr)

  Using BsplineBuilder for one-body jastrow with B-spline functions
  BsplineJastrowBuilder::put(xmlNodePtr)
  BsplineJastrowBuilder::createOneBodyJastrow(xmlNodePtr)
  ... ParticleSet::addTable Reuse Table #1 ion0_e
  ... ParticleSet::addTable Reuse Table #1 ion0_e
  BsplineFunctor::put(xmlNodePtr)
 size = 8 parameters 
 cusp = 0.0000000000
 rcut = 4.5000000000
Parameter     Name      Value
eO_0 -1.2202112860 1 1  ON 0
eO_1 -1.1057362360 1 1  ON 1
eO_2 -0.9430923466 1 1  ON 2
eO_3 -0.7327962272 1 1  ON 3
eO_4 -0.5418414075 1 1  ON 4
eO_5 -0.3632240551 1 1  ON 5
eO_6 -0.2417759150 1 1  ON 6
eO_7 -0.0913269406 1 1  ON 7
  JastrowBuilder::addTwoBody(xmlNodePtr)
  PadeJastrowBuilder::put()
  HamiltonianPool::put
  QMCHamiltonian::addOperator Kinetic to H, physical Hamiltonian 
  ... ParticleSet::addTable Reuse Table #0 e_e
  QMCHamiltonian::addOperator ElecElec to H, physical Hamiltonian 
  CoulombAA for ion0 is not created.  Number of particles == 1 and nonPeriodic

  ECPotential builder for pseudopotential 

  Adding pseudopotential for O
   Linear grid  ri=0.0000000000 rf=10.0000000000 npts = 10001
    ECPComponentBuilder::buildSemiLocalAndLocal 
    Assuming Hartree unit
   Number of angular momentum channels 2
   Maximum angular momentum channel 1
   Creating a Linear Grid Rmax=1.3100000000
  Using global grid with delta = 0.0010000000
   Making L=1 a local potential with a radial cutoff of 9.9980000000
  NonLocalECPComponent::resize_warrays 
    Non-local pseudopotential parameters
    Maximum angular mementum = 0
    Number of non-local channels = 1
       l(0)=0
    Cutoff radius = 1.3100000000
    Spherical grids and weights: 
             1.0000000000      0.0000000000      0.0000000000        0.0833333333
            -1.0000000000      0.0000000000      0.0000000000        0.0833333333
             0.4472135955      0.8944271910      0.0000000000        0.0833333333
            -0.4472135955      0.7236067977      0.5257311121        0.0833333333
             0.4472135955      0.2763932023      0.8506508084        0.0833333333
            -0.4472135955     -0.2763932023      0.8506508084        0.0833333333
             0.4472135955     -0.7236067977      0.5257311121        0.0833333333
            -0.4472135955     -0.8944271910      0.0000000000        0.0833333333
             0.4472135955     -0.7236067977     -0.5257311121        0.0833333333
            -0.4472135955     -0.2763932023     -0.8506508084        0.0833333333
             0.4472135955      0.2763932023     -0.8506508084        0.0833333333
            -0.4472135955      0.7236067977     -0.5257311121        0.0833333333
    Maximum cutoff radius 1.3100000000
  ... ParticleSet::addTable Reuse Table #1 ion0_e
  QMCHamiltonian::addOperator LocalECP to H, physical Hamiltonian 
  ForceBase::ForceBase
  ... ParticleSet::addTable Reuse Table #1 ion0_e
  ... ParticleSet::addTable Reuse Table #1 ion0_e

  Using NonLocalECP potential 
    Maximum grid on a sphere for NonLocalECPotential: 12
  QMCHamiltonian::addOperator NonLocalECP to H, physical Hamiltonian 

  QMCHamiltonian::add2WalkerProperty added
    4 to P::PropertyList 
    0 to P::Collectables 
    starting Index of the observables in P::PropertyList = 9
  Hamiltonian disables VirtualMoves
ParticleSetPool::randomize 
<init source="ion0" target="e">
</init>
=========================================================
 Summary of QMC systems 
=========================================================
ParticleSetPool has: 

  ParticleSet e : 0 4 5 

    5

    u  1.4304214942e+01  1.3565663907e+01  1.2623428247e+01
    u  1.3248189504e+01  1.6943982336e+01  1.3743349764e+01
    u  1.3336054685e+01  1.4571815375e+01  1.4589647521e+01
    u  1.6221068922e+01  1.3406175312e+01  1.3801514950e+01
    d  1.3571706856e+01  1.3766867145e+01  1.4590901463e+01

  ParticleSet ion0 : 0 1 

    1

    O  1.4172946000e+01  1.4172947410e+01  1.4172948830e+01

  Hamiltonian h0
  Kinetic         Kinetic energy
  ElecElec        CoulombAA source/target e

  LocalECP        LocalECPotential: ion0
  NonLocalECP     NonLocalECPotential: ion0

=========================================================
  Start VMCSingleOMP
  File Root O_q1_dmc.s000 append = no 
=========================================================
  Adding 64 walkers to 0 existing sets
  Total number of walkers: 2.0480000000e+03
  Total weight: 2.0480000000e+03
  Resetting Properties of the walkers 1 x 13

<vmc function="put">
  qmc_counter=0  my_counter=0
  time step      = 3.0000000000e-01
  blocks         = 20
  steps          = 10
  substeps       = 1
  current        = 0
  target samples = 2.0480000000e+03
  walkers/mpi    = 64

  stepsbetweensamples = 200
<parameter name="blocks" condition="int">20</parameter>
<parameter name="check_properties" condition="int">100</parameter>
<parameter name="checkproperties" condition="int">100</parameter>
<parameter name="current" condition="int">0</parameter>
<parameter name="dmcwalkersperthread" condition="real">1.0000000000e+00</parameter>
<parameter name="maxcpusecs" condition="real">3.6000000000e+05</parameter>
<parameter name="record_configs" condition="int">0</parameter>
<parameter name="record_walkers" condition="int">200</parameter>
<parameter name="recordconfigs" condition="int">0</parameter>
<parameter name="recordwalkers" condition="int">200</parameter>
<parameter name="rewind" condition="int">0</parameter>
<parameter name="samples" condition="real">2.0480000000e+03</parameter>
<parameter name="samplesperthread" condition="real">1.0000000000e+00</parameter>
<parameter name="steps" condition="int">10</parameter>
<parameter name="stepsbetweensamples" condition="int">200</parameter>
<parameter name="store_configs" condition="int">0</parameter>
<parameter name="storeconfigs" condition="int">0</parameter>
<parameter name="sub_steps" condition="int">1</parameter>
<parameter name="substeps" condition="int">1</parameter>
<parameter name="tau" condition="au">3.0000000000e-01</parameter>
<parameter name="time_step" condition="au">3.0000000000e-01</parameter>
<parameter name="timestep" condition="au">3.0000000000e-01</parameter>
<parameter name="use_drift" condition="string">yes</parameter>
<parameter name="usedrift" condition="string">yes</parameter>
<parameter name="walkers" condition="int">64</parameter>
<parameter name="warmup_steps" condition="int">30</parameter>
<parameter name="warmupsteps" condition="int">30</parameter>
  DumpConfig==false Nothing (configurations, state) will be saved.
  Walker Samples are dumped every 200 steps.
</vmc>

 TraceManager::put() 1
  traces requested          : 0
  method allows traces      : 1
  traces available          : 0

  Adding a default LocalEnergyEstimator for the MainEstimator 
  CloneManager::makeClones makes 64 clones for W/Psi/H.
  Cloning methods for both Psi and H are used
  Initial partition of walkers 0 1 2 3 4 5 6 7 8 9 10 11 12 13 14 15 16 17 18 19 20 21 22 23 24 25 26 27 28 29 30 31 32 33 34 35 36 37 38 39 40 41 42 43 44 45 46 47 48 49 50 51 52 53 54 55 56 57 58 59 60 61 62 63 64 
  PbyP moves with drift, using VMCUpdatePbyPWithDriftFast

  Total Sample Size   =2048
  Walker distribution on root = 0 1 2 3 4 5 6 7 8 9 10 11 12 13 14 15 16 17 18 19 20 21 22 23 24 25 26 27 28 29 30 31 32 33 34 35 36 37 38 39 40 41 42 43 44 45 46 47 48 49 50 51 52 53 54 55 56 57 58 59 60 61 62 63 64 
  Anonymous Buffer size per walker 302
MEMORY increase 0 MB VMCSingleOMP::resetRun
====================================================
  SimpleFixedNodeBranch::finalize after a VMC block
    QMC counter        = 0
    time step          = 0.3
    reference energy   = -15.3757
    reference variance = 0.796991
====================================================
  QMC Execution time = 6.9370341250e-01 secs 
Creating DMCMP for the qmc driver

=========================================================
  Start DMCOMP
  File Root O_q1_dmc.s001 append = no 
=========================================================
Using existing walkers 
  Resetting Properties of the walkers 1 x 13

 TraceManager::put() 1
  traces requested          : 0
  method allows traces      : 1
  traces available          : 0

  DMCOMP::resetUpdateEngines
  Cannot make clones again. Use existing 64 clones
  Total number of walkers: 2.0480000000e+03
  Total weight: 2.0480000000e+03
  Creating WalkerController: target  number of walkers = 2048
  Using WalkerControlMPI for dynamic population control.
  START ALL OVER 
  WalkerControlBase parameters 
    maxCopy = 2
   Max Walkers per node 129
   Min Walkers per node 13
  QMC counter      = 1
  time step        = 4.0000000000e-02
  effective time step = 4.0000000000e-02
  trial energy     = -1.5375690302e+01
  reference energy = -1.5375690302e+01
  Feedback = 1.0000000000e+00
  reference variance = 7.9699050937e-01
  target walkers = 2048
  branch cutoff = 5.0000000000e+01 7.5000000000e+01
  Max and mimum walkers per node= 129 13
  QMC Status (BranchMode) = 0000001101
  Initial partition of walkers on a node: 0 1 2 3 4 5 6 7 8 9 10 11 12 13 14 15 16 17 18 19 20 21 22 23 24 25 26 27 28 29 30 31 32 33 34 35 36 37 38 39 40 41 42 43 44 45 46 47 48 49 50 51 52 53 54 55 56 57 58 59 60 61 62 63 64 
  Updates by particle-by-particle moves using fast gradient version 
  DMC moves are rejected when a node crossing is detected
SimpleFixedNodeBranch::checkParameters 
  Average Energy of a population  = -15.3595
  Energy Variance = 0.899653

  Fluctuating population
  Persisent walkers are killed after 1 MC sweeps
  BranchInterval = 1
  Steps per block = 4
  Number of blocks = 400

  DMC Engine Initialization = 2.8343833750e-02 secs 

 Warmup is completed after 100

  TauEff     = 3.6750183477e-02
 TauEff/Tau = 9.1875458693e-01
  Etrial     = -1.5364885359e+01
 Running average of energy = -1.5411511954e+01
                  Variance = 6.3774312413e-01
branch cutoff = 1.0000000000e+01 1.5000000000e+01
====================================================
  SimpleFixedNodeBranch::finalize after a DMC block
    QMC counter                   = 1
    time step                     = 0.04
    effective time step           = 0.0367496
    trial energy                  = -15.3969
    reference energy              = -15.4067
    reference variance            = 0.637743
    target walkers                = 2048
    branch cutoff                 = 10 15
    Max and mimum walkers per node= 129 13
    Feedback                      = 1
    QMC Status (BranchMode)       = 0000001111
====================================================
  QMC Execution time = 1.5128849449e+01 secs 
  Reusing DMCOMP
BRANCH resetRun
 SimpleFixedNodeBranch::resetRun detected changes in <parameter>'s 
 BranchMode : 0000001111 0000001111
  WalkerControlBase parameters 
    maxCopy = 2
   Max Walkers per node 129
   Min Walkers per node 13
 iParam (old): 0                 1                 1                 2048              129               13                1                 0                 
 iParam (new): 40                1                 1                 2048              129               13                1                 0                 
 vParam (old): 4.0000000000e-02  3.6749595520e-02  -1.5396869769e+01 -1.5406683391e+01 -1.5402772300e+01 1.5000000000e+01  1.0000000000e+01  2.0000000000e-01  6.3774312413e-01  -2.3125427858e+04 1.5010000000e+03  1.0000000000e+00  1.0000000000e+01  1.0000000000e+00  1.0000000000e+00  1.0000000000e+00  1.0000000000e+00  
 vParam (new): 2.0000000000e-02  3.6749595520e-02  -1.5396869769e+01 -1.5406683391e+01 -1.5402772300e+01 1.5000000000e+01  1.0000000000e+01  2.0000000000e-01  6.3774312413e-01  -2.3125427858e+04 1.5010000000e+03  1.0000000000e+00  1.0000000000e+01  1.0000000000e+00  1.0000000000e+00  1.0000000000e+00  1.0000000000e+00  
SimpleFixedNodeBranch::checkParameters 
  Average Energy of a population  = -15.4005
  Energy Variance = 0.763793


=========================================================
  Start DMCOMP
  File Root O_q1_dmc.s002 append = no 
=========================================================
Using existing walkers 
  Resetting Properties of the walkers 1 x 13

 TraceManager::put() 1
  traces requested          : 0
  method allows traces      : 1
  traces available          : 0

  DMCOMP::resetUpdateEngines
  Cannot make clones again. Use existing 64 clones
SimpleFixedNodeBranch::checkParameters 
  Average Energy of a population  = -15.3824
  Energy Variance = 0.764657

  Fluctuating population
  Persisent walkers are killed after 1 MC sweeps
  BranchInterval = 1
  Steps per block = 8
  Number of blocks = 400

  DMC Engine Initialization = 1.9372150000e-03 secs 

 Warmup is completed after 40

  TauEff     = 1.9284239761e-02
 TauEff/Tau = 9.6421198803e-01
  Etrial     = -1.5386403441e+01
 Running average of energy = -1.5402327977e+01
                  Variance = 6.2956452873e-01
branch cutoff = 1.0000000000e+01 1.5000000000e+01
====================================================
  SimpleFixedNodeBranch::finalize after a DMC block
    QMC counter                   = 2
    time step                     = 0.02
    effective time step           = 0.0192866
    trial energy                  = -15.4076
    reference energy              = -15.3999
    reference variance            = 0.629565
    target walkers                = 2048
    branch cutoff                 = 10 15
    Max and mimum walkers per node= 129 13
    Feedback                      = 1
    QMC Status (BranchMode)       = 0000001111
====================================================
  QMC Execution time = 1.9110504435e+01 secs 
  Reusing DMCOMP
BRANCH resetRun
 SimpleFixedNodeBranch::resetRun detected changes in <parameter>'s 
 BranchMode : 0000001111 0000001111
  WalkerControlBase parameters 
    maxCopy = 2
   Max Walkers per node 129
   Min Walkers per node 13
 iParam (old): 0                 1                 2                 2048              129               13                1                 0                 
 iParam (new): 80                1                 2                 2048              129               13                1                 0                 
 vParam (old): 2.0000000000e-02  1.9286587060e-02  -1.5407640608e+01 -1.5399858468e+01 -1.5391848078e+01 1.5000000000e+01  1.0000000000e+01  2.0000000000e-01  6.2956452873e-01  -4.8678944607e+04 3.1610000000e+03  1.0000000000e+00  1.0000000000e+01  1.0000000000e+00  1.0000000000e+00  1.0000000000e+00  1.0000000000e+00  
 vParam (new): 1.0000000000e-02  1.9286587060e-02  -1.5407640608e+01 -1.5399858468e+01 -1.5391848078e+01 1.5000000000e+01  1.0000000000e+01  2.0000000000e-01  6.2956452873e-01  -4.8678944607e+04 3.1610000000e+03  1.0000000000e+00  1.0000000000e+01  1.0000000000e+00  1.0000000000e+00  1.0000000000e+00  1.0000000000e+00  
SimpleFixedNodeBranch::checkParameters 
  Average Energy of a population  = -15.3901
  Energy Variance = 0.741432


=========================================================
  Start DMCOMP
  File Root O_q1_dmc.s003 append = no 
=========================================================
Using existing walkers 
  Resetting Properties of the walkers 1 x 13

 TraceManager::put() 1
  traces requested          : 0
  method allows traces      : 1
  traces available          : 0

  DMCOMP::resetUpdateEngines
  Cannot make clones again. Use existing 64 clones
SimpleFixedNodeBranch::checkParameters 
  Average Energy of a population  = -15.4028
  Energy Variance = 0.811423

  Fluctuating population
  Persisent walkers are killed after 1 MC sweeps
  BranchInterval = 1
  Steps per block = 16
  Number of blocks = 400

  DMC Engine Initialization = 2.3579412500e-03 secs 

 Warmup is completed after 80

  TauEff     = 9.8503027897e-03
 TauEff/Tau = 9.8503027897e-01
  Etrial     = -1.5375931177e+01
 Running average of energy = -1.5400588107e+01
                  Variance = 5.9168257919e-01
branch cutoff = 1.0000000000e+01 1.5000000000e+01
====================================================
  SimpleFixedNodeBranch::finalize after a DMC block
    QMC counter                   = 3
    time step                     = 0.01
    effective time step           = 0.00985179
    trial energy                  = -15.4044
    reference energy              = -15.3971
    reference variance            = 0.591683
    target walkers                = 2048
    branch cutoff                 = 10 15
    Max and mimum walkers per node= 129 13
    Feedback                      = 1
    QMC Status (BranchMode)       = 0000001111
====================================================
  QMC Execution time = 2.6845610506e+01 secs 
  Reusing DMCOMP
BRANCH resetRun
 SimpleFixedNodeBranch::resetRun detected changes in <parameter>'s 
 BranchMode : 0000001111 0000001111
  WalkerControlBase parameters 
    maxCopy = 2
   Max Walkers per node 129
   Min Walkers per node 13
 iParam (old): 0                 1                 3                 2048              129               13                1                 0                 
 iParam (new): 160               1                 3                 2048              129               13                1                 0                 
 vParam (old): 1.0000000000e-02  9.8517915633e-03  -1.5404403164e+01 -1.5397105637e+01 -1.5416545139e+01 1.5000000000e+01  1.0000000000e+01  2.0000000000e-01  5.9168257919e-01  -9.7325124173e+04 6.3210000000e+03  1.0000000000e+00  1.0000000000e+01  1.0000000000e+00  1.0000000000e+00  1.0000000000e+00  1.0000000000e+00  
 vParam (new): 5.0000000000e-03  9.8517915633e-03  -1.5404403164e+01 -1.5397105637e+01 -1.5416545139e+01 1.5000000000e+01  1.0000000000e+01  2.0000000000e-01  5.9168257919e-01  -9.7325124173e+04 6.3210000000e+03  1.0000000000e+00  1.0000000000e+01  1.0000000000e+00  1.0000000000e+00  1.0000000000e+00  1.0000000000e+00  
SimpleFixedNodeBranch::checkParameters 
  Average Energy of a population  = -15.4171
  Energy Variance = 0.737934


=========================================================
  Start DMCOMP
  File Root O_q1_dmc.s004 append = no 
=========================================================
Using existing walkers 
  Resetting Properties of the walkers 1 x 13

 TraceManager::put() 1
  traces requested          : 0
  method allows traces      : 1
  traces available          : 0

  DMCOMP::resetUpdateEngines
  Cannot make clones again. Use existing 64 clones
SimpleFixedNodeBranch::checkParameters 
  Average Energy of a population  = -15.3877
  Energy Variance = 0.762747

  Fluctuating population
  Persisent walkers are killed after 1 MC sweeps
  BranchInterval = 1
  Steps per block = 32
  Number of blocks = 400

  DMC Engine Initialization = 1.9442612500e-03 secs 

 Warmup is completed after 160

  TauEff     = 4.9705226820e-03
 TauEff/Tau = 9.9410453639e-01
  Etrial     = -1.5382859505e+01
 Running average of energy = -1.5395755268e+01
                  Variance = 6.0756416504e-01
branch cutoff = 1.0000000000e+01 1.5000000000e+01
====================================================
  SimpleFixedNodeBranch::finalize after a DMC block
    QMC counter                   = 4
    time step                     = 0.005
    effective time step           = 0.00497
    trial energy                  = -15.3901
    reference energy              = -15.3974
    reference variance            = 0.607564
    target walkers                = 2048
    branch cutoff                 = 10 15
    Max and mimum walkers per node= 129 13
    Feedback                      = 1
    QMC Status (BranchMode)       = 0000001111
====================================================
  QMC Execution time = 4.2597298814e+01 secs 
  Reusing DMCOMP
BRANCH resetRun
 SimpleFixedNodeBranch::resetRun detected changes in <parameter>'s 
 BranchMode : 0000001111 0000001111
  WalkerControlBase parameters 
    maxCopy = 2
   Max Walkers per node 129
   Min Walkers per node 13
 iParam (old): 0                 1                 4                 2048              129               13                1                 0                 
 iParam (new): 320               1                 4                 2048              129               13                1                 0                 
 vParam (old): 5.0000000000e-03  4.9700039795e-03  -1.5390087887e+01 -1.5397439059e+01 -1.5398496340e+01 1.5000000000e+01  1.0000000000e+01  2.0000000000e-01  6.0756416504e-01  -1.9463902821e+05 1.2641000000e+04  1.0000000000e+00  1.0000000000e+01  1.0000000000e+00  1.0000000000e+00  1.0000000000e+00  1.0000000000e+00  
 vParam (new): 2.5000000000e-03  4.9700039795e-03  -1.5390087887e+01 -1.5397439059e+01 -1.5398496340e+01 1.5000000000e+01  1.0000000000e+01  2.0000000000e-01  6.0756416504e-01  -1.9463902821e+05 1.2641000000e+04  1.0000000000e+00  1.0000000000e+01  1.0000000000e+00  1.0000000000e+00  1.0000000000e+00  1.0000000000e+00  
SimpleFixedNodeBranch::checkParameters 
  Average Energy of a population  = -15.3979
  Energy Variance = 0.803195


=========================================================
  Start DMCOMP
  File Root O_q1_dmc.s005 append = no 
=========================================================
Using existing walkers 
  Resetting Properties of the walkers 1 x 13

 TraceManager::put() 1
  traces requested          : 0
  method allows traces      : 1
  traces available          : 0

  DMCOMP::resetUpdateEngines
  Cannot make clones again. Use existing 64 clones
SimpleFixedNodeBranch::checkParameters 
  Average Energy of a population  = -15.3929
  Energy Variance = 0.817084

  Fluctuating population
  Persisent walkers are killed after 1 MC sweeps
  BranchInterval = 1
  Steps per block = 64
  Number of blocks = 400

  DMC Engine Initialization = 1.9357825000e-03 secs 

 Warmup is completed after 320

  TauEff     = 2.4942667188e-03
 TauEff/Tau = 9.9770668752e-01
  Etrial     = -1.5376940964e+01
 Running average of energy = -1.5394948048e+01
                  Variance = 5.9650531274e-01
branch cutoff = 1.0000000000e+01 1.5000000000e+01
====================================================
  SimpleFixedNodeBranch::finalize after a DMC block
    QMC counter                   = 5
    time step                     = 0.0025
    effective time step           = 0.00249412
    trial energy                  = -15.4088
    reference energy              = -15.3962
    reference variance            = 0.596505
    target walkers                = 2048
    branch cutoff                 = 10 15
    Max and mimum walkers per node= 129 13
    Feedback                      = 1
    QMC Status (BranchMode)       = 0000001111
====================================================
  QMC Execution time = 7.3570602725e+01 secs 
  Total Execution time = 1.7822295056e+02 secs

=========================================================
  A new xml input file : O_q1_dmc.s005.cont.xml
