  Input file(s): H.xml 

=====================================================
                    QMCPACK 1.0.0 

  (c) Copyright 2003-  QMCPACK developers            

  Subversion branch 6312
  Last modified     2014-05-19 15:22:38 +0000 (Mon, 19 May 2014)
=====================================================
  Global options 
  async_swap=0 : using blocking send/recv for walker swaps 

  MPI Nodes            = 32
  MPI Nodes per group  = 32
  MPI Group ID         = 0
  OMP_NUM_THREADS      = 4
  Input XML = H.xml

  Project = H
  date    = 2014-06-25 19:43:25 UTC
  host    = Q02-I0-J07.vesta.itd
  user    = wparker

  DO NOT READ DENSITY
  Offset for the random number seeds based on time 605
  Random number offset = 605  seeds = 4463-5569
  ParticleSetPool::put
  Creating e particleset
  XMLParticleParser::putSpecial
  All the species have the same mass 1
Particles are grouped. Safe to use groups 
e
  ParticleSetPool::put
  Creating ion0 particleset
  XMLParticleParser::putSpecial
  All the species have the same mass 1
Particles are grouped. Safe to use groups 
ion0
 Adding WavefunctionFactory for psi0
  WaveFunctionFactory::build
  WaveFunctionFactory::addFermionTerm
  SlaterDetBuilder::put(xmlNodePtr)
  BasisSetFactory::createBasisSet
Using MolecularBasisBuilder<NGOBuilder>

  MolecularBasisBuilder::put(xmlNodePtr)
<input node="basisset"  name="LCAOBSet"/>
  Distance table for AA: source/target = e
    PBC=open Orthorhombic=NA
 using Cartesian coordinates with 
  ... ParticleSet::addTable Create Table #0 e_e
  Distance table for AB: source = ion0 target = e
    PBC=open Orthorhombic=NA
 using Cartesian coordinates 
  ... ParticleSet::addTable Create Table #1 ion0_e
  AtomicBasisBuilder::put(xmlNodePtr)
<input node="atomicBasisSet"  name="STO-2G"  angular="cartesian"  type="Gaussian"  elementType="H"  normalized="no"/>
  AtomicBasisBuilder::createAOSet(xmlNodePtr)
  AO BasisSet for H
   Angular momentum expanded in cartesian functions x^lx y^ly z^lz according to Gamess
Using log grid with default values: ri = 1e-06 rf = 100 npts = 1001
   R(n,l,m,s) 0 0 0 0
Expanding Ylm (angular function) according to Gamess using cartesian gaussians
    Gaussian exponent = 1.30976
              contraction=0.430128 nomralized contraction = 1.33047
    Gaussian exponent = 0.233136
              contraction=0.678914 nomralized contraction = 0.575488
Adding 1 cartesian gaussian orbitals for l= 0
   Maximu Angular Momentum   = 0
   Number of Radial functors = 1
   Basis size                = 1

Built BasisSetBuilder "LCAOBSet" of type molecularorbital
  BasisSetFactory::createBasisSet
Reuse BasisSetBuilder "LCAOBSet" type MolecularOrbital
 Building SPOset  with  basis set.
  MolecularBasisBuilder::createSPO(xmlNodePtr)
Creating LCOrbitalSet with the Identity coefficient
   Using Identity for the LCOrbitalSet 
  SlaterDetBuilder::putDeterminant(xmlNodePtr,int)
  Creating a determinant updet group=0 sposet=updet
  Reusing a SPO set updet

  FermionWF=SlaterDet
  HamiltonianPool::put
  QMCHamiltonian::addOperator Kinetic to H, physical Hamiltonian 
  CoulombAA for e is not created.  Number of particles == 1 and nonPeriodic
  ... ParticleSet::addTable Reuse Table #1 ion0_e
  QMCHamiltonian::addOperator Coulomb to H, physical Hamiltonian 
  CoulombAA for ion0 is not created.  Number of particles == 1 and nonPeriodic

  QMCHamiltonian::add2WalkerProperty added
    2 to P::PropertyList 
    0 to P::Collectables 
    starting Index of the observables in P::PropertyList = 9
  Hamiltonian disables VirtualMoves
ParticleSetPool::randomize 
=========================================================
 Summary of QMC systems 
=========================================================
ParticleSetPool has: 

  ParticleSet e : 0 1 

    1

    u -5.0000000000e-01  5.0000000000e-01 -5.0000000000e-01

  ParticleSet ion0 : 0 1 

    1

    H  0.0000000000e+00  0.0000000000e+00  0.0000000000e+00

  Hamiltonian h0
  Kinetic         Kinetic energy
  Coulomb         CoulombAB source=ion0


=========================================================
  Start VMCSingleOMP
  File Root H.s000 append = no 
=========================================================
  Adding 4 walkers to 0 existing sets
  Total number of walkers: 1.2800000000e+02
  Total weight: 1.2800000000e+02
  Resetting Properties of the walkers 1 x 11

<vmc function="put">
  qmc_counter=0  my_counter=0
  time step      = 5.0000000000e-02
  blocks         = 500
  steps          = 100
  substeps       = 1
  current        = 0
  target samples = 1.6000000000e+03
  walkers/mpi    = 4

  stepsbetweensamples = 3846
<parameter name="blocks" condition="int">500</parameter>
<parameter name="check_properties" condition="int">100</parameter>
<parameter name="checkproperties" condition="int">100</parameter>
<parameter name="current" condition="int">0</parameter>
<parameter name="dmcwalkersperthread" condition="real">1.3000000000e+01</parameter>
<parameter name="maxcpusecs" condition="real">3.6000000000e+05</parameter>
<parameter name="record_configs" condition="int">0</parameter>
<parameter name="record_walkers" condition="int">3846</parameter>
<parameter name="recordconfigs" condition="int">0</parameter>
<parameter name="recordwalkers" condition="int">3846</parameter>
<parameter name="rewind" condition="int">0</parameter>
<parameter name="samples" condition="real">1.6000000000e+03</parameter>
<parameter name="samplesperthread" condition="real">1.3000000000e+01</parameter>
<parameter name="steps" condition="int">100</parameter>
<parameter name="stepsbetweensamples" condition="int">3846</parameter>
<parameter name="store_configs" condition="int">0</parameter>
<parameter name="storeconfigs" condition="int">0</parameter>
<parameter name="sub_steps" condition="int">1</parameter>
<parameter name="substeps" condition="int">1</parameter>
<parameter name="tau" condition="au">5.0000000000e-02</parameter>
<parameter name="time_step" condition="au">5.0000000000e-02</parameter>
<parameter name="timestep" condition="au">5.0000000000e-02</parameter>
<parameter name="use_drift" condition="string">yes</parameter>
<parameter name="usedrift" condition="string">yes</parameter>
<parameter name="walkers" condition="int">4</parameter>
<parameter name="warmup_steps" condition="int">100</parameter>
<parameter name="warmupsteps" condition="int">100</parameter>
  DumpConfig==false Nothing (configurations, state) will be saved.
  Walker Samples are dumped every 3846 steps.
</vmc>

 TraceManager::put() 1
  traces requested          : 0
  method allows traces      : 1
  traces available          : 0

  Adding a default LocalEnergyEstimator for the MainEstimator 
  CloneManager::makeClones makes 4 clones for W/Psi/H.
  Cloning methods for both Psi and H are used
  Initial partition of walkers 0 1 2 3 4 
  PbyP moves with drift, using VMCUpdatePbyPWithDriftFast

  Total Sample Size   =1664
  Walker distribution on root = 0 1 2 3 4 
  Anonymous Buffer size per walker 17
MEMORY increase 0 MB VMCSingleOMP::resetRun
====================================================
  SimpleFixedNodeBranch::finalize after a VMC block
    QMC counter        = 0
    time step          = 0.05
    reference energy   = -0.431827
    reference variance = 0.555697
====================================================
  QMC Execution time = 1.3405175831e+01 secs 
  Total Execution time = 1.3476763781e+01 secs

=========================================================
  A new xml input file : H.s000.cont.xml
Fri Jun 27 13:38:17 UTC 2014
  Input file(s): H.xml 

=====================================================
                    QMCPACK 1.0.0 

  (c) Copyright 2003-  QMCPACK developers            

  Subversion branch 6312
  Last modified     2014-05-19 15:22:38 +0000 (Mon, 19 May 2014)
=====================================================
  Global options 
  async_swap=0 : using blocking send/recv for walker swaps 

  MPI Nodes            = 32
  MPI Nodes per group  = 32
  MPI Group ID         = 0
  OMP_NUM_THREADS      = 4
  Input XML = H.xml

  Project = H
  date    = 2014-06-27 13:38:25 UTC
  host    = Q02-I7-J06.vesta.itd
  user    = wparker

  DO NOT READ DENSITY
  Offset for the random number seeds based on time 977
  Random number offset = 977  seeds = 7717-8887
  ParticleSetPool::put
  Creating e particleset
  XMLParticleParser::putSpecial
  All the species have the same mass 1
Particles are grouped. Safe to use groups 
e
  ParticleSetPool::put
  Creating ion0 particleset
  XMLParticleParser::putSpecial
  All the species have the same mass 1
Particles are grouped. Safe to use groups 
ion0
 Adding WavefunctionFactory for psi0
  WaveFunctionFactory::build
  WaveFunctionFactory::addFermionTerm
  SlaterDetBuilder::put(xmlNodePtr)
  BasisSetFactory::createBasisSet
Using MolecularBasisBuilder<NGOBuilder>

  MolecularBasisBuilder::put(xmlNodePtr)
<input node="basisset"  name="LCAOBSet"/>
  Distance table for AA: source/target = e
    PBC=open Orthorhombic=NA
 using Cartesian coordinates with 
  ... ParticleSet::addTable Create Table #0 e_e
  Distance table for AB: source = ion0 target = e
    PBC=open Orthorhombic=NA
 using Cartesian coordinates 
  ... ParticleSet::addTable Create Table #1 ion0_e
  AtomicBasisBuilder::put(xmlNodePtr)
<input node="atomicBasisSet"  name="STO-2G"  angular="cartesian"  type="Gaussian"  elementType="H"  normalized="no"/>
  AtomicBasisBuilder::createAOSet(xmlNodePtr)
  AO BasisSet for H
   Angular momentum expanded in cartesian functions x^lx y^ly z^lz according to Gamess
Using log grid with default values: ri = 1e-06 rf = 100 npts = 1001
   R(n,l,m,s) 0 0 0 0
Expanding Ylm (angular function) according to Gamess using cartesian gaussians
    Gaussian exponent = 1.30976
              contraction=0.430128 nomralized contraction = 1.33047
    Gaussian exponent = 0.233136
              contraction=0.678914 nomralized contraction = 0.575488
Adding 1 cartesian gaussian orbitals for l= 0
   Maximu Angular Momentum   = 0
   Number of Radial functors = 1
   Basis size                = 1

Built BasisSetBuilder "LCAOBSet" of type molecularorbital
  BasisSetFactory::createBasisSet
Reuse BasisSetBuilder "LCAOBSet" type MolecularOrbital
 Building SPOset  with  basis set.
  MolecularBasisBuilder::createSPO(xmlNodePtr)
Creating LCOrbitalSet with the Identity coefficient
   Using Identity for the LCOrbitalSet 
  SlaterDetBuilder::putDeterminant(xmlNodePtr,int)
  Creating a determinant updet group=0 sposet=updet
  Reusing a SPO set updet

  FermionWF=SlaterDet
  HamiltonianPool::put
  QMCHamiltonian::addOperator Kinetic to H, physical Hamiltonian 
  CoulombAA for e is not created.  Number of particles == 1 and nonPeriodic
  ... ParticleSet::addTable Reuse Table #1 ion0_e
  QMCHamiltonian::addOperator Coulomb to H, physical Hamiltonian 
  CoulombAA for ion0 is not created.  Number of particles == 1 and nonPeriodic

  QMCHamiltonian::add2WalkerProperty added
    2 to P::PropertyList 
    0 to P::Collectables 
    starting Index of the observables in P::PropertyList = 9
  Hamiltonian disables VirtualMoves
ParticleSetPool::randomize 
=========================================================
 Summary of QMC systems 
=========================================================
ParticleSetPool has: 

  ParticleSet e : 0 1 

    1

    u -5.0000000000e-01  5.0000000000e-01 -5.0000000000e-01

  ParticleSet ion0 : 0 1 

    1

    H  0.0000000000e+00  0.0000000000e+00  0.0000000000e+00

  Hamiltonian h0
  Kinetic         Kinetic energy
  Coulomb         CoulombAB source=ion0


=========================================================
  Start VMCSingleOMP
  File Root H.s000 append = no 
=========================================================
  Adding 4 walkers to 0 existing sets
  Total number of walkers: 1.2800000000e+02
  Total weight: 1.2800000000e+02
  Resetting Properties of the walkers 1 x 11

<vmc function="put">
  qmc_counter=0  my_counter=0
  time step      = 5.0000000000e-02
  blocks         = 500
  steps          = 100
  substeps       = 1
  current        = 0
  target samples = 1.6000000000e+03
  walkers/mpi    = 4

  stepsbetweensamples = 3846
<parameter name="blocks" condition="int">500</parameter>
<parameter name="check_properties" condition="int">100</parameter>
<parameter name="checkproperties" condition="int">100</parameter>
<parameter name="current" condition="int">0</parameter>
<parameter name="dmcwalkersperthread" condition="real">1.3000000000e+01</parameter>
<parameter name="maxcpusecs" condition="real">3.6000000000e+05</parameter>
<parameter name="record_configs" condition="int">0</parameter>
<parameter name="record_walkers" condition="int">3846</parameter>
<parameter name="recordconfigs" condition="int">0</parameter>
<parameter name="recordwalkers" condition="int">3846</parameter>
<parameter name="rewind" condition="int">0</parameter>
<parameter name="samples" condition="real">1.6000000000e+03</parameter>
<parameter name="samplesperthread" condition="real">1.3000000000e+01</parameter>
<parameter name="steps" condition="int">100</parameter>
<parameter name="stepsbetweensamples" condition="int">3846</parameter>
<parameter name="store_configs" condition="int">0</parameter>
<parameter name="storeconfigs" condition="int">0</parameter>
<parameter name="sub_steps" condition="int">1</parameter>
<parameter name="substeps" condition="int">1</parameter>
<parameter name="tau" condition="au">5.0000000000e-02</parameter>
<parameter name="time_step" condition="au">5.0000000000e-02</parameter>
<parameter name="timestep" condition="au">5.0000000000e-02</parameter>
<parameter name="use_drift" condition="string">yes</parameter>
<parameter name="usedrift" condition="string">yes</parameter>
<parameter name="walkers" condition="int">4</parameter>
<parameter name="warmup_steps" condition="int">100</parameter>
<parameter name="warmupsteps" condition="int">100</parameter>
  DumpConfig==false Nothing (configurations, state) will be saved.
  Walker Samples are dumped every 3846 steps.
</vmc>

 TraceManager::put() 1
  traces requested          : 0
  method allows traces      : 1
  traces available          : 0

  Adding a default LocalEnergyEstimator for the MainEstimator 
  CloneManager::makeClones makes 4 clones for W/Psi/H.
  Cloning methods for both Psi and H are used
  Initial partition of walkers 0 1 2 3 4 
  PbyP moves with drift, using VMCUpdatePbyPWithDriftFast

  Total Sample Size   =1664
  Walker distribution on root = 0 1 2 3 4 
  Anonymous Buffer size per walker 17
MEMORY increase 0 MB VMCSingleOMP::resetRun
====================================================
  SimpleFixedNodeBranch::finalize after a VMC block
    QMC counter        = 0
    time step          = 0.05
    reference energy   = -0.575529
    reference variance = 0.78566
====================================================
  QMC Execution time = 1.3250650895e+01 secs 
  Total Execution time = 1.3315375550e+01 secs

=========================================================
  A new xml input file : H.s000.cont.xml
