#INFO: **** input file is /home/abenali/Work/Development/QMCPACK-Benali/qmcpack/tests/converter/test_LiH_pyscf_UHF/test/LiH.py ****
#! /usr/bin/env python3


# Note import path which is different to molecule code
#from pyscf.pbc import gto, scf, df, dft
from pyscf import gto, scf, df, dft
import  numpy


cell = gto.M(
   atom ='''Li  0.0 0.0 0.0
            H   0.0 0.0 3.0139239778''',
   basis ='cc-pvdz',
   unit="bohr",
   spin=0,
   verbose = 5,
   cart=False,
)



mf = scf.UHF(cell)
mf.kernel()

title='LiH'


from PyscfToQmcpack import savetoqmcpack
savetoqmcpack(cell,mf,title)
#INFO: ******************** input file end ********************


System: uname_result(system='Linux', node='abenali', release='4.15.0-112-generic', version='#113-Ubuntu SMP Thu Jul 9 23:41:39 UTC 2020', machine='x86_64', processor='x86_64')  Threads 8
Python 3.6.9 (default, Jul 17 2020, 12:50:27) 
[GCC 8.4.0]
numpy 1.15.4  scipy 1.1.0
Date: Mon Aug 24 20:51:23 2020
PySCF version 1.6.4
PySCF path  /home/abenali/Work/src/pyscf/pyscf
GIT ORIG_HEAD a75bcf7966f0e9c0a30c188cc2a7f0bdf268b5e8
GIT HEAD      ref: refs/heads/master
GIT master branch  a75bcf7966f0e9c0a30c188cc2a7f0bdf268b5e8

[CONFIG] conf_file None
[INPUT] verbose = 5
[INPUT] max_memory = 4000 
[INPUT] num. atoms = 2
[INPUT] num. electrons = 4
[INPUT] charge = 0
[INPUT] spin (= nelec alpha-beta = 2S) = 0
[INPUT] symmetry False subgroup None
[INPUT] Mole.unit = bohr
[INPUT]  1 Li     0.000000000000   0.000000000000   0.000000000000 AA    0.000000000000   0.000000000000   0.000000000000 Bohr
[INPUT]  2 H      0.000000000000   0.000000000000   1.594899884497 AA    0.000000000000   0.000000000000   3.013923977800 Bohr
[INPUT] ---------------- BASIS SET ---------------- 
[INPUT] l, kappa, [nprim/nctr], expnt,             c_1 c_2 ...
[INPUT] Li
[INPUT] 0    0    [8    /2   ]  1469              0.000766 -0.00012
                                220.5             0.005892 -0.000923
                                50.26             0.029671 -0.004689
                                14.24             0.10918 -0.017682
                                4.581             0.282789 -0.048902
                                1.58              0.453123 -0.096009
                                0.564             0.274774 -0.13638
                                0.07345           0.009751 0.575102
[INPUT] 0    0    [1    /1   ]  0.02805              1
[INPUT] 1    0    [3    /1   ]  1.534             0.022784
                                0.2749            0.139107
                                0.07362           0.500375
[INPUT] 1    0    [1    /1   ]  0.02403              1
[INPUT] 2    0    [1    /1   ]  0.1239               1
[INPUT] H
[INPUT] 0    0    [3    /1   ]  13.01             0.019685
                                1.962             0.137977
                                0.4446            0.478148
[INPUT] 0    0    [1    /1   ]  0.122                1
[INPUT] 1    0    [1    /1   ]  0.727                1

nuclear repulsion = 0.995380116451987
number of shells = 8
number of NR pGTOs = 33
number of NR cGTOs = 19
basis = cc-pvdz
ecp = {}
CPU time:         0.24


******** <class 'pyscf.scf.uhf.UHF'> ********
method = UHF
initial guess = minao
damping factor = 0
level_shift factor = 0
DIIS = <class 'pyscf.scf.diis.CDIIS'>
diis_start_cycle = 1
diis_space = 8
SCF conv_tol = 1e-09
SCF conv_tol_grad = None
SCF max_cycles = 50
direct_scf = True
direct_scf_tol = 1e-13
chkfile to save SCF result = /home/abenali/Work/Development/QMCPACK-Benali/qmcpack/tests/converter/test_LiH_pyscf_UHF/test/tmp5s8cv_x2
max_memory 4000 MB (current use 76 MB)
number electrons alpha = 2  beta = 2
Set gradient conv threshold to 3.16228e-05
cond(S) = 118.50705206043278
E1 = -12.11392236516986  Ecoul = 3.3691981845185426
init E= -7.74934406419933
    CPU time for initialize scf      0.16 sec, wall time      0.04 sec
  alpha nocc = 2  HOMO = -0.30509315489864  LUMO = -0.0294792340910751
  beta  nocc = 2  HOMO = -0.299458005607714  LUMO = -0.0297960973035978
  alpha mo_energy =
[-2.48489753 -0.30509315 -0.02947923  0.03522143  0.03522143  0.06744876
  0.15734858  0.16526681  0.16526681  0.26022575  0.34340367  0.34340367
  0.35782386  0.35782386  0.54507443  0.77972598  1.61615009  1.61615009
  1.79013702]
  beta  mo_energy =
[-2.48474388 -0.29945801 -0.0297961   0.03536438  0.03536438  0.06715807
  0.15740047  0.16541418  0.16541418  0.26049077  0.34369218  0.34369218
  0.35790192  0.35790192  0.54542839  0.77984399  1.61675693  1.61675693
  1.79060426]
multiplicity <S^2> = 9.1803769e-06  2S+1 = 1.0000184
E1 = -12.466379645584638  Ecoul = 3.4946941159912877
cycle= 1 E= -7.97630541314136  delta_E= -0.227  |g|= 0.0762  |ddm|= 0.476
    CPU time for cycle= 1      0.03 sec, wall time      0.00 sec
  alpha nocc = 2  HOMO = -0.286815913929333  LUMO = 0.000659772277897723
  beta  nocc = 2  HOMO = -0.287032174094841  LUMO = 0.000652615191973515
  alpha mo_energy =
[-2.45444575e+00 -2.86815914e-01  6.59772278e-04  4.22034737e-02
  4.22034737e-02  1.01482328e-01  1.50622485e-01  1.77043683e-01
  1.77043683e-01  2.88346740e-01  3.64883140e-01  3.64883140e-01
  3.67003132e-01  3.67003132e-01  5.98347650e-01  9.39931006e-01
  1.81598157e+00  1.81598157e+00  1.97978177e+00]
  beta  mo_energy =
[-2.45446531e+00 -2.87032174e-01  6.52615192e-04  4.22293936e-02
  4.22293936e-02  1.01439748e-01  1.50607705e-01  1.77000351e-01
  1.77000351e-01  2.88376323e-01  3.64872961e-01  3.64872961e-01
  3.66972190e-01  3.66972190e-01  5.98351317e-01  9.39926235e-01
  1.81594072e+00  1.81594072e+00  1.97973126e+00]
multiplicity <S^2> = 2.2445626e-06  2S+1 = 1.0000045
E1 = -12.452349118191602  Ecoul = 3.473888101024171
cycle= 2 E= -7.98308090071544  delta_E= -0.00678  |g|= 0.013  |ddm|= 0.145
    CPU time for cycle= 2      0.03 sec, wall time      0.00 sec
  alpha nocc = 2  HOMO = -0.30304457889564  LUMO = 0.00189034289759536
  beta  nocc = 2  HOMO = -0.303180955243962  LUMO = 0.00188869584645393
  alpha mo_energy =
[-2.45118393e+00 -3.03044579e-01  1.89034290e-03  4.25509611e-02
  4.25509611e-02  1.00045299e-01  1.52474679e-01  1.78106289e-01
  1.78106289e-01  2.86376373e-01  3.62845973e-01  3.62845973e-01
  3.66712944e-01  3.66712944e-01  5.89646152e-01  9.17593622e-01
  1.77985147e+00  1.77985147e+00  1.94415697e+00]
  beta  mo_energy =
[-2.45119493e+00 -3.03180955e-01  1.88869585e-03  4.25621758e-02
  4.25621758e-02  1.00029608e-01  1.52470584e-01  1.78087406e-01
  1.78087406e-01  2.86384215e-01  3.62835892e-01  3.62835892e-01
  3.66708325e-01  3.66708325e-01  5.89648303e-01  9.17540184e-01
  1.77982008e+00  1.77982008e+00  1.94411632e+00]
multiplicity <S^2> = 4.3090399e-07  2S+1 = 1.0000009
E1 = -12.454180182048207  Ecoul = 3.475263131796349
cycle= 3 E= -7.98353693379987  delta_E= -0.000456  |g|= 0.0038  |ddm|= 0.0422
    CPU time for cycle= 3      0.03 sec, wall time      0.00 sec
  alpha nocc = 2  HOMO = -0.300364407544196  LUMO = 0.00190035825557781
  beta  nocc = 2  HOMO = -0.300410705571753  LUMO = 0.00190124114811536
  alpha mo_energy =
[-2.44990983e+00 -3.00364408e-01  1.90035826e-03  4.28314301e-02
  4.28314301e-02  1.00426273e-01  1.52683760e-01  1.78735363e-01
  1.78735363e-01  2.86830976e-01  3.63599182e-01  3.63599182e-01
  3.67157151e-01  3.67157151e-01  5.90894316e-01  9.21521078e-01
  1.78549120e+00  1.78549120e+00  1.94949303e+00]
  beta  mo_energy =
[-2.44991007e+00 -3.00410706e-01  1.90124115e-03  4.28332174e-02
  4.28332174e-02  1.00418143e-01  1.52685365e-01  1.78736128e-01
  1.78736128e-01  2.86833368e-01  3.63600919e-01  3.63600919e-01
  3.67158275e-01  3.67158275e-01  5.90895887e-01  9.21480702e-01
  1.78547462e+00  1.78547462e+00  1.94947401e+00]
multiplicity <S^2> = 1.9170745e-08  2S+1 = 1
E1 = -12.456080961231656  Ecoul = 3.4770867019342067
cycle= 4 E= -7.98361414284546  delta_E= -7.72e-05  |g|= 0.000546  |ddm|= 0.0185
    CPU time for cycle= 4      0.03 sec, wall time      0.00 sec
  alpha nocc = 2  HOMO = -0.300494558861708  LUMO = 0.001696702480568
  beta  nocc = 2  HOMO = -0.300521156257889  LUMO = 0.00169666207510472
  alpha mo_energy =
[-2.45049861e+00 -3.00494559e-01  1.69670248e-03  4.27608741e-02
  4.27608741e-02  1.00435502e-01  1.52537677e-01  1.78534220e-01
  1.78534220e-01  2.86667318e-01  3.63404060e-01  3.63404060e-01
  3.66917791e-01  3.66917791e-01  5.90843832e-01  9.21619904e-01
  1.78546782e+00  1.78546782e+00  1.94950340e+00]
  beta  mo_energy =
[-2.45049749e+00 -3.00521156e-01  1.69666208e-03  4.27625158e-02
  4.27625158e-02  1.00432230e-01  1.52538872e-01  1.78536298e-01
  1.78536298e-01  2.86667191e-01  3.63405477e-01  3.63405477e-01
  3.66919539e-01  3.66919539e-01  5.90843301e-01  9.21597859e-01
  1.78545674e+00  1.78545674e+00  1.94949260e+00]
multiplicity <S^2> = 6.6260843e-09  2S+1 = 1
E1 = -12.455950943926611  Ecoul = 3.476955566023389
cycle= 5 E= -7.98361526145124  delta_E= -1.12e-06  |g|= 8.09e-05  |ddm|= 0.0027
    CPU time for cycle= 5      0.03 sec, wall time      0.00 sec
  alpha nocc = 2  HOMO = -0.300463622762213  LUMO = 0.00167755440997887
  beta  nocc = 2  HOMO = -0.300483371093227  LUMO = 0.00167773038701774
  alpha mo_energy =
[-2.45056871e+00 -3.00463623e-01  1.67755441e-03  4.27503467e-02
  4.27503467e-02  1.00443504e-01  1.52509159e-01  1.78505866e-01
  1.78505866e-01  2.86643242e-01  3.63390723e-01  3.63390723e-01
  3.66888357e-01  3.66888357e-01  5.90846876e-01  9.21644048e-01
  1.78551546e+00  1.78551546e+00  1.94954878e+00]
  beta  mo_energy =
[-2.45056786e+00 -3.00483371e-01  1.67773039e-03  4.27517926e-02
  4.27517926e-02  1.00440962e-01  1.52510277e-01  1.78507694e-01
  1.78507694e-01  2.86642884e-01  3.63391760e-01  3.63391760e-01
  3.66889899e-01  3.66889899e-01  5.90845874e-01  9.21629471e-01
  1.78550700e+00  1.78550700e+00  1.94954098e+00]
multiplicity <S^2> = 4.1529893e-09  2S+1 = 1
E1 = -12.45588613843033  Ecoul = 3.476890748164048
cycle= 6 E= -7.98361527381429  delta_E= -1.24e-08  |g|= 8.64e-06  |ddm|= 0.000375
    CPU time for cycle= 6      0.03 sec, wall time      0.00 sec
  alpha nocc = 2  HOMO = -0.300474974251918  LUMO = 0.00167568606023308
  beta  nocc = 2  HOMO = -0.30048974385996  LUMO = 0.00167578739129805
  alpha mo_energy =
[-2.45057207e+00 -3.00474974e-01  1.67568606e-03  4.27497902e-02
  4.27497902e-02  1.00441644e-01  1.52509265e-01  1.78505085e-01
  1.78505085e-01  2.86642698e-01  3.63387724e-01  3.63387724e-01
  3.66886652e-01  3.66886652e-01  5.90842495e-01  9.21635878e-01
  1.78550206e+00  1.78550206e+00  1.94953605e+00]
  beta  mo_energy =
[-2.45057135e+00 -3.00489744e-01  1.67578739e-03  4.27509358e-02
  4.27509358e-02  1.00439845e-01  1.52510122e-01  1.78506621e-01
  1.78506621e-01  2.86642285e-01  3.63388569e-01  3.63388569e-01
  3.66887919e-01  3.66887919e-01  5.90841608e-01  9.21625056e-01
  1.78549555e+00  1.78549555e+00  1.94953023e+00]
multiplicity <S^2> = 2.5112614e-09  2S+1 = 1
E1 = -12.455886464035915  Ecoul = 3.4768910735784138
cycle= 7 E= -7.98361527400552  delta_E= -1.91e-10  |g|= 3.38e-06  |ddm|= 3.75e-05
    CPU time for cycle= 7      0.03 sec, wall time      0.00 sec
  alpha nocc = 2  HOMO = -0.300474362118002  LUMO = 0.00167589810516955
  beta  nocc = 2  HOMO = -0.300486587507447  LUMO = 0.00167599365578503
  alpha mo_energy =
[-2.45057200e+00 -3.00474362e-01  1.67589811e-03  4.27499028e-02
  4.27499028e-02  1.00441789e-01  1.52509105e-01  1.78505146e-01
  1.78505146e-01  2.86642568e-01  3.63388164e-01  3.63388164e-01
  3.66886831e-01  3.66886831e-01  5.90843135e-01  9.21636280e-01
  1.78550437e+00  1.78550437e+00  1.94953822e+00]
  beta  mo_energy =
[-2.45057137e+00 -3.00486588e-01  1.67599366e-03  4.27508597e-02
  4.27508597e-02  1.00440296e-01  1.52509837e-01  1.78506471e-01
  1.78506471e-01  2.86642195e-01  3.63388890e-01  3.63388890e-01
  3.66887911e-01  3.66887911e-01  5.90842362e-01  9.21627324e-01
  1.78549894e+00  1.78549894e+00  1.94953339e+00]
multiplicity <S^2> = 1.7659265e-09  2S+1 = 1
E1 = -12.455885566734311  Ecoul = 3.47689017624357
Extra cycle  E= -7.98361527403875  delta_E= -3.32e-11  |g|= 2.59e-06  |ddm|= 5.77e-06
    CPU time for scf_cycle      0.38 sec, wall time      0.07 sec
    CPU time for SCF      0.38 sec, wall time      0.07 sec
converged SCF energy = -7.98361527403875  <S^2> = 1.7659265e-09  2S+1 = 1
Using Python 3.x
Wavefunction successfully saved to QMCPACK HDF5 Format
Use: "convert4qmc -pyscf  LiH.h5" to generate QMCPACK input files
