Rank =    0  Free Memory = 13521 MB
Rank =    1  Free Memory = 13521 MB
Rank =    2  Free Memory = 13521 MB
Rank =    3  Free Memory = 13521 MB
  Input file(s): revised-descent.xml 

=====================================================
                    QMCPACK 3.8.9

       (c) Copyright 2003-  QMCPACK developers

                    Please cite:
 J. Kim et al. J. Phys. Cond. Mat. 30 195901 (2018)
      https://doi.org/10.1088/1361-648X/aab9c3

  Git branch: pr_revisions
  Last git commit: 4804cbbdcc37389134482f7b0e33772c8f3b728b-dirty
  Last git commit date: Wed Sep 4 20:33:29 2019 -0700
  Last git commit subject: Accomodate CSFcoeff and add overall defualt step size for descent
=====================================================
  Global options 

  Total number of MPI ranks = 4
  Number of MPI groups      = 1
  MPI group ID              = 0
  Number of ranks in group  = 4
  MPI ranks per node        = 4
  OMP 1st level threads     = 1
  OMP nested threading disabled or only 1 thread on the 2nd level

  Precision used in this calculation, see definitions in the manual:
  Base precision      = double
  Full precision      = double

  Structure-of-arrays (SoA) optimization enabled

  Input XML = revised-descent.xml

  Project = descent_ref
  date    = 2019-09-04 20:59:34 PDT
  host    = gilman13

 Random Number
 -------------
  Offset for the random number seeds based on time: 38

  Range of prime numbers to use as seeds over processors and threads = 173-193


 Particle Set 
 ------------
  Name: e
  All the species have the same mass 1
  Particle set size: 4

 Particle Set 
 ------------
  Name: ion0
  All the species have the same mass 1
  Particle set size: 4

 Wavefunction setup: 
 ------------------- 
  Name: psi0
  Created SPOSet builder named 'LCAOBSet' of type molecularorbital
  LCAO: SoaAtomicBasisSet<MultiQuintic,0>
  AO BasisSet for H
   Angular momentum expanded in cartesian functions x^lx y^ly z^lz according to Gamess
Using log grid with default values: ri = 1e-06 rf = 100 npts = 1001
   R(n,l,m,s) 0 0 0 0
Expanding Ylm (angular function) according to Gamess using cartesian gaussians
Adding 1 cartesian gaussian orbitals for l= 0
  Setting cutoff radius 8.62979

   Maximum Angular Momentum  = 0
   Number of Radial functors = 1
   Basis size                = 1

Creating SPOSet in SlaterDetBuilder::put(xmlNodePtr cur).
spo_name = spo-up
  Building SPOSet 'spo-up' with 'LCAOBSet' basis set.
Creating SPOSet in SlaterDetBuilder::put(xmlNodePtr cur).
spo_name = spo-dn
  Building SPOSet 'spo-dn' with 'LCAOBSet' basis set.
Using Bryan's algorithm for MultiSlaterDeterminant expansion. 
Creating base determinant (up) for MSD expansion. 
Creating base determinant (down) for MSD expansion. 
Found determinant list. 
Reading CSFs.
Found 2 terms in the MSD expansion.
Norm of ci vector (sum of ci^2): 0.638005
Norm of qchem ci vector (sum of qchem_ci^2): 0.990143
Found 2 unique up determinants.
Found 2 unique down determinants.
Number of terms in pairs array: 1
Number of terms in pairs array: 1
CI coefficients are optimizable. 
  Added a fermionic WaveFunctionComponent MultiSlaterDeterminantFast

   Jastrow
   -------
    Name: J2   Type: Two-Body   Function: Bspline

    Radial function for species: u - u
     Number of parameters: 10
     Cusp: -0.25
     Cutoff radius: 10

     Name                        Value Type Recompute Use Index
     ---- ---------------------------- ---- --------- --- -----
     uu_0                 5.680176e-01    1         1  ON     0
     uu_1                 3.699138e-01    1         1  ON     1
     uu_2                 2.108829e-01    1         1  ON     2
     uu_3                 9.267632e-02    1         1  ON     3
     uu_4                 5.276940e-03    1         1  ON     4
     uu_5                -3.330962e-02    1         1  ON     5
     uu_6                -2.484192e-02    1         1  ON     6
     uu_7                 8.603361e-03    1         1  ON     7
     uu_8                 3.763565e-02    1         1  ON     8
     uu_9                 2.979626e-02    1         1  ON     9

    Radial function for species: u - d
     Number of parameters: 10
     Cusp: -0.5
     Cutoff radius: 10

     Name                        Value Type Recompute Use Index
     ---- ---------------------------- ---- --------- --- -----
     ud_0                 9.168016e-01    1         1  ON     0
     ud_1                 5.756625e-01    1         1  ON     1
     ud_2                 3.465443e-01    1         1  ON     2
     ud_3                 1.896617e-01    1         1  ON     3
     ud_4                 8.747532e-02    1         1  ON     4
     ud_5                 3.482162e-02    1         1  ON     5
     ud_6                 3.708930e-02    1         1  ON     6
     ud_7                 6.355172e-02    1         1  ON     7
     ud_8                 7.720516e-02    1         1  ON     8
     ud_9                 5.828843e-02    1         1  ON     9


   Jastrow
   -------
    Name: J1   Type: One-Body   Function: Bspline

    Radial function for element: H
     Number of parameters: 10
     Cusp: 1
     Cutoff radius: 5

     Name                        Value Type Recompute Use Index
     ---- ---------------------------- ---- --------- --- -----
     eH_0                 1.539994e-02    1         1  ON     0
     eH_1                 2.935596e-02    1         1  ON     1
     eH_2                -1.133046e-01    1         1  ON     2
     eH_3                -9.452275e-02    1         1  ON     3
     eH_4                -1.063167e-01    1         1  ON     4
     eH_5                -7.820047e-02    1         1  ON     5
     eH_6                -3.640043e-02    1         1  ON     6
     eH_7                -6.827574e-03    1         1  ON     7
     eH_8                 8.345458e-03    1         1  ON     8
     eH_9                 4.849582e-03    1         1  ON     9

  QMCHamiltonian::addOperator Kinetic to H, physical Hamiltonian 
  QMCHamiltonian::addOperator ElecElec to H, physical Hamiltonian 
QMCHamiltonian::addOperatorType added type coulomb named ElecElec
  QMCHamiltonian::addOperator IonElec to H, physical Hamiltonian 
QMCHamiltonian::addOperatorType added type coulomb named IonElec
  QMCHamiltonian::addOperator IonIon to H, physical Hamiltonian 
QMCHamiltonian::addOperatorType added type coulomb named IonIon

  QMCHamiltonian::add2WalkerProperty added
    4 to P::PropertyList 
    0 to P::Collectables 
    starting Index of the observables in P::PropertyList = 9
ParticleSetPool::randomize 
  Initialization Execution time = 0.01009 secs
=========================================================
 Summary of QMC systems 
=========================================================
ParticleSetPool has: 

  ParticleSet 'e' contains 4 particles :  u(2) d(2)

    u  1.0958951042e+00  5.1427708436e-01 -1.4428370103e+00
    u  6.0611124208e-01 -1.7216487456e-01 -7.7962973208e-01
    d -6.4575975825e-01  9.9108864642e-01  1.8564835946e-01
    d -7.5318592612e-02  2.7134132518e-01 -1.1765509155e+00

  Distance table for dissimilar particles (A-B):
    source: ion0  target: e
    Using structure-of-arrays (SoA) data layout
    Distance computations use open boundary conditions in 3D.

  Distance table for similar particles (A-A):
    source/target: e
    Using structure-of-arrays (SoA) data layout
    Distance computations use open boundary conditions in 3D.


  ParticleSet 'ion0' contains 4 particles :  H(4)

    H  0.0000000000e+00  0.0000000000e+00  0.0000000000e+00
    H  1.8897259877e+00  0.0000000000e+00  0.0000000000e+00
    H  0.0000000000e+00  0.0000000000e+00  2.8345889816e+00
    H  0.0000000000e+00  0.0000000000e+00  5.6691779632e+00

  Distance table for similar particles (A-A):
    source/target: ion0
    Using structure-of-arrays (SoA) data layout
    Distance computations use open boundary conditions in 3D.


  Hamiltonian h0
  Kinetic         Kinetic energy
  ElecElec        CoulombAB source=e

  IonElec         CoulombAA source/target ion0

  IonIon          CoulombAA source/target ion0


Loop execution max-interations = 50

=========================================================
  Start QMCFixedSampleLinearOptimize
  File Root descent_ref.s000 append = no 
=========================================================
  Skip QMCDriver::putQMCInfo 
  Resetting Properties of the walkers 1 x 13
  Adding 1 walkers to 0 existing sets
  Total number of walkers: 4.0000000000e+00
  Total weight: 4.0000000000e+00

=========================================================
  Start VMC
  File Root descent_ref.s000 append = no 
=========================================================
Resetting walkers
  Using the current 1 walkers.
  Total number of walkers: 4.0000000000e+00
  Total weight: 4.0000000000e+00
  Resetting Properties of the walkers 1 x 13

<vmc function="put">
  qmc_counter=0  my_counter=0
  time step      = 5.0000000000e-02
  blocks         = 2000
  steps          = 3
  substeps       = 1
  current        = 0
  target samples = 2.0000000000e+04
  walkers/mpi    = 1

  stepsbetweensamples = 1
<parameter name="blm_length" condition="int">0</parameter>
<parameter name="blocks" condition="int">2000</parameter>
<parameter name="blocks_between_recompute" condition="int">0</parameter>
<parameter name="check_properties" condition="int">100</parameter>
<parameter name="checkproperties" condition="int">100</parameter>
<parameter name="current" condition="int">0</parameter>
<parameter name="descent_length" condition="int">0</parameter>
<parameter name="dmcwalkersperthread" condition="real">5.0000000000e+03</parameter>
<parameter name="hybrid_descent_samples" condition="real">0.0000000000e+00</parameter>
<parameter name="maxcpusecs" condition="real">3.6000000000e+05</parameter>
<parameter name="minmethod" condition="string">descent</parameter>
<parameter name="record_configs" condition="int">0</parameter>
<parameter name="record_walkers" condition="int">1</parameter>
<parameter name="recordconfigs" condition="int">0</parameter>
<parameter name="recordwalkers" condition="int">1</parameter>
<parameter name="rewind" condition="int">0</parameter>
<parameter name="samples" condition="real">2.0000000000e+04</parameter>
<parameter name="samplesperthread" condition="real">5.0000000000e+03</parameter>
<parameter name="steps" condition="int">3</parameter>
<parameter name="stepsbetweensamples" condition="int">1</parameter>
<parameter name="store_configs" condition="int">0</parameter>
<parameter name="storeconfigs" condition="int">0</parameter>
<parameter name="sub_steps" condition="int">1</parameter>
<parameter name="substeps" condition="int">1</parameter>
<parameter name="tau" condition="au">5.0000000000e-02</parameter>
<parameter name="time_step" condition="au">5.0000000000e-02</parameter>
<parameter name="timestep" condition="au">5.0000000000e-02</parameter>
<parameter name="use_drift" condition="string">no</parameter>
<parameter name="usedrift" condition="string">no</parameter>
<parameter name="walkers" condition="int">1</parameter>
<parameter name="warmup_steps" condition="int">1000</parameter>
<parameter name="warmupsteps" condition="int">1000</parameter>
  DumpConfig==false Nothing (configurations, state) will be saved.
  Walker Samples are dumped every 1 steps.
</vmc>
  Set drift_modifier UNR parameter a = 1.0000000000e+00
 Using QMCCostFunction::QMCCostFunction
  Set drift_modifier UNR parameter a = 1.0000000000e+00
<optimization-report>
<vmc stage="main" blocks="2000">
  Initial partition of walkers 0 1 

  Using Particle by Particle moves
  Walker moves without drift
  Total Sample Size   =20000
  Walker distribution on root = 0 1 
===== Memory Usage after the buffer registration =====
Available memory on node 0, free + buffers : 13519 MB
Memory footprint by rank 0 on node 0       : 25 MB
==================================================
  Anonymous Buffer size per walker : 1704 Bytes.
MEMORY increase 0 MB VMC::resetRun
====================================================
  SimpleFixedNodeBranch::finalize after a VMC block
    QMC counter        = 0
    time step          = 0.05
    reference energy   = -1.92671
    reference variance = 0.456422
====================================================
  Execution time = 1.0895e-01
</vmc>
<opt stage="setup">
  <log>
   Reading configurations from h5FileRoot descent_ref.s000
  QMCCostFunction is created with 1 threads.
  Using Nonlocal PP in Opt: no
   Number of samples loaded to each thread : 5000 
  VMC Eavg = -2.0512e+00
  VMC Evar = 2.4204e-01
  Total weights = 2.0000e+04
  Execution time = 5.3945e-02
  </log>
</opt>
<opt stage="main" walkers="20000">
  <log>
Iteration: 1/1
  VMC Eavg = -2.0512e+00
  VMC Evar = 2.4204e-01
  Total weights = 2.0000e+04
This is e_avg: -2.0512e+00
This is total weights: 2.0000e+04
Parameter # 0 Hamiltonian term: 1.4715e+00
Parameter # 0 Overlap term: -7.9885e-01
Parameter # 1 Hamiltonian term: 2.2065e-03
Parameter # 1 Overlap term: -9.1466e-04
Parameter # 2 Hamiltonian term: 3.0435e-02
Parameter # 2 Overlap term: -1.9167e-02
Parameter # 3 Hamiltonian term: 2.1262e-01
Parameter # 3 Overlap term: -1.0676e-01
Parameter # 4 Hamiltonian term: 5.3941e-01
Parameter # 4 Overlap term: -2.7340e-01
Parameter # 5 Hamiltonian term: 7.5978e-01
Parameter # 5 Overlap term: -3.8242e-01
Parameter # 6 Hamiltonian term: 8.0740e-01
Parameter # 6 Overlap term: -3.7618e-01
Parameter # 7 Hamiltonian term: 7.1134e-01
Parameter # 7 Overlap term: -3.5361e-01
Parameter # 8 Hamiltonian term: 5.6642e-01
Parameter # 8 Overlap term: -2.7278e-01
Parameter # 9 Hamiltonian term: 3.1424e-01
Parameter # 9 Overlap term: -1.4148e-01
Parameter # 10 Hamiltonian term: 1.2065e-01
Parameter # 10 Overlap term: -5.3133e-02
Parameter # 11 Hamiltonian term: 4.8041e-02
Parameter # 11 Overlap term: -2.8720e-02
Parameter # 12 Hamiltonian term: 4.3356e-01
Parameter # 12 Overlap term: -2.1169e-01
Parameter # 13 Hamiltonian term: 1.1742e+00
Parameter # 13 Overlap term: -5.5357e-01
Parameter # 14 Hamiltonian term: 1.6551e+00
Parameter # 14 Overlap term: -8.2516e-01
Parameter # 15 Hamiltonian term: 1.5423e+00
Parameter # 15 Overlap term: -7.7209e-01
Parameter # 16 Hamiltonian term: 1.0927e+00
Parameter # 16 Overlap term: -5.3089e-01
Parameter # 17 Hamiltonian term: 8.6446e-01
Parameter # 17 Overlap term: -4.1524e-01
Parameter # 18 Hamiltonian term: 7.1126e-01
Parameter # 18 Overlap term: -3.4814e-01
Parameter # 19 Hamiltonian term: 4.4832e-01
Parameter # 19 Overlap term: -2.0548e-01
Parameter # 20 Hamiltonian term: 1.6900e-01
Parameter # 20 Overlap term: -8.2702e-02
Parameter # 21 Hamiltonian term: 2.9997e-01
Parameter # 21 Overlap term: -1.5525e-01
Parameter # 22 Hamiltonian term: 1.3272e+00
Parameter # 22 Overlap term: -7.3626e-01
Parameter # 23 Hamiltonian term: 2.5354e+00
Parameter # 23 Overlap term: -1.1910e+00
Parameter # 24 Hamiltonian term: 2.7326e+00
Parameter # 24 Overlap term: -1.2921e+00
Parameter # 25 Hamiltonian term: 2.7058e+00
Parameter # 25 Overlap term: -1.3248e+00
Parameter # 26 Hamiltonian term: 2.9558e+00
Parameter # 26 Overlap term: -1.4264e+00
Parameter # 27 Hamiltonian term: 3.3621e+00
Parameter # 27 Overlap term: -1.6114e+00
Parameter # 28 Hamiltonian term: 3.0619e+00
Parameter # 28 Overlap term: -1.6099e+00
Parameter # 29 Hamiltonian term: 2.5596e+00
Parameter # 29 Overlap term: -1.2533e+00
Parameter # 30 Hamiltonian term: 1.7851e+00
Parameter # 30 Overlap term: -8.2067e-01
Number of Parameters: 31
Parameter Type step sizes:  TJF_2Body_eta=1.0000e-02 TJF_1Body_eta=1.0000e-02 F_eta=1.0000e-03 CI_eta=2.0000e-01 Orb_eta=1.0000e-03
Using RMSprop
  Execution time = 2.1583e-01
  </log>
  <optVariables href="descent_ref.s000.opt.xml">
CSFcoeff_1 -5.183389e-01                3 1 ON  0
uu_0       5.680174e-01                 1 1 ON  1
uu_1       3.699197e-01                 1 1 ON  2
uu_2       2.108872e-01                 1 1 ON  3
uu_3       9.269058e-02                 1 1 ON  4
uu_4       5.293376e-03                 1 1 ON  5
uu_5       -3.333347e-02                1 1 ON  6
uu_6       -2.483260e-02                1 1 ON  7
uu_7       8.598761e-03                 1 1 ON  8
uu_8       3.761962e-02                 1 1 ON  9
uu_9       2.978849e-02                 1 1 ON  10
ud_0       9.168088e-01                 1 1 ON  11
ud_1       5.756630e-01                 1 1 ON  12
ud_2       3.465185e-01                 1 1 ON  13
ud_3       1.896867e-01                 1 1 ON  14
ud_4       8.750295e-02                 1 1 ON  15
ud_5       3.481916e-02                 1 1 ON  16
ud_6       3.708082e-02                 1 1 ON  17
ud_7       6.355361e-02                 1 1 ON  18
ud_8       7.718727e-02                 1 1 ON  19
ud_9       5.828885e-02                 1 1 ON  20
eH_0       1.541226e-02                 1 1 ON  21
eH_1       2.947798e-02                 1 1 ON  22
eH_2       -1.133662e-01                1 1 ON  23
eH_3       -9.457758e-02                1 1 ON  24
eH_4       -1.063090e-01                1 1 ON  25
eH_5       -7.822044e-02                1 1 ON  26
eH_6       -3.643830e-02                1 1 ON  27
eH_7       -6.667301e-03                1 1 ON  28
eH_8       8.352883e-03                 1 1 ON  29
eH_9       4.781770e-03                 1 1 ON  30
  </optVariables>
   Restore the number of walkers to 1, removing 0 walkers.
</opt>
</optimization-report>
  QMC Execution time = 0.2167 secs

=========================================================
  Start QMCFixedSampleLinearOptimize
  File Root descent_ref.s001 append = no 
=========================================================
  Skip QMCDriver::putQMCInfo 
  Resetting Properties of the walkers 1 x 13

=========================================================
  Start VMC
  File Root descent_ref.s001 append = no 
=========================================================
Using existing walkers 
  Resetting Properties of the walkers 1 x 13

<vmc function="put">
  qmc_counter=1  my_counter=1
  time step      = 0.05
  blocks         = 2000
  steps          = 3
  substeps       = 1
  current        = 0
  target samples = 2e+04
  walkers/mpi    = 1

  stepsbetweensamples = 1
<parameter name="blm_length" condition="int">0</parameter>
<parameter name="blocks" condition="int">2000</parameter>
<parameter name="blocks_between_recompute" condition="int">0</parameter>
<parameter name="check_properties" condition="int">100</parameter>
<parameter name="checkproperties" condition="int">100</parameter>
<parameter name="current" condition="int">0</parameter>
<parameter name="descent_length" condition="int">0</parameter>
<parameter name="dmcwalkersperthread" condition="real">5000</parameter>
<parameter name="hybrid_descent_samples" condition="real">0</parameter>
<parameter name="maxcpusecs" condition="real">3.6e+05</parameter>
<parameter name="minmethod" condition="string">descent</parameter>
<parameter name="record_configs" condition="int">0</parameter>
<parameter name="record_walkers" condition="int">1</parameter>
<parameter name="recordconfigs" condition="int">0</parameter>
<parameter name="recordwalkers" condition="int">1</parameter>
<parameter name="rewind" condition="int">0</parameter>
<parameter name="samples" condition="real">2e+04</parameter>
<parameter name="samplesperthread" condition="real">5000</parameter>
<parameter name="steps" condition="int">3</parameter>
<parameter name="stepsbetweensamples" condition="int">1</parameter>
<parameter name="store_configs" condition="int">0</parameter>
<parameter name="storeconfigs" condition="int">0</parameter>
<parameter name="sub_steps" condition="int">1</parameter>
<parameter name="substeps" condition="int">1</parameter>
<parameter name="tau" condition="au">0.05</parameter>
<parameter name="time_step" condition="au">0.05</parameter>
<parameter name="timestep" condition="au">0.05</parameter>
<parameter name="use_drift" condition="string">no</parameter>
<parameter name="usedrift" condition="string">no</parameter>
<parameter name="walkers" condition="int">1</parameter>
<parameter name="warmup_steps" condition="int">1000</parameter>
<parameter name="warmupsteps" condition="int">1000</parameter>
  DumpConfig==false Nothing (configurations, state) will be saved.
  Walker Samples are dumped every 1 steps.
</vmc>
  Set drift_modifier UNR parameter a = 1
  EstimatorManagerBase::add replace LocalEnergy estimator.
  Set drift_modifier UNR parameter a = 1
  EstimatorManagerBase::add replace LocalEnergy estimator.
<optimization-report>
<vmc stage="main" blocks="2000">
  Cannot make clones again. Use existing 1 clones
  Initial partition of walkers 0 1 
  Using Particle by Particle moves
  Walker moves without drift
  Total Sample Size   =20000
  Walker distribution on root = 0 1 
===== Memory Usage after the buffer registration =====
Available memory on node 0, free + buffers : 13486 MB
Memory footprint by rank 0 on node 0       : 35 MB
==================================================
====================================================
  SimpleFixedNodeBranch::finalize after a VMC block
    QMC counter        = 1
    time step          = 0.05
    reference energy   = -1.99736
    reference variance = 0.139258
====================================================
  Execution time = 0.09917
</vmc>
<opt stage="setup">
  <log>
   Reading configurations from h5FileRoot descent_ref.s001
  Using Nonlocal PP in Opt: no
   Number of samples loaded to each thread : 5000 
  VMC Eavg = -1.935
  VMC Evar = 0.3224
  Total weights = 2e+04
  Execution time = 0.05157
  </log>
</opt>
<opt stage="main" walkers="20000">
  <log>
Iteration: 1/1
  VMC Eavg = -1.935
  VMC Evar = 0.3224
  Total weights = 2e+04
This is e_avg: -1.935
This is total weights: 2e+04
Parameter # 0 Hamiltonian term: 1.818
Parameter # 0 Overlap term: -1.074
Parameter # 1 Hamiltonian term: 0.0005438
Parameter # 1 Overlap term: -0.001044
Parameter # 2 Hamiltonian term: 0.03654
Parameter # 2 Overlap term: -0.01943
Parameter # 3 Hamiltonian term: 0.2324
Parameter # 3 Overlap term: -0.1139
Parameter # 4 Hamiltonian term: 0.4818
Parameter # 4 Overlap term: -0.2992
Parameter # 5 Hamiltonian term: 0.7931
Parameter # 5 Overlap term: -0.4009
Parameter # 6 Hamiltonian term: 0.7199
Parameter # 6 Overlap term: -0.3807
Parameter # 7 Hamiltonian term: 0.6408
Parameter # 7 Overlap term: -0.3239
Parameter # 8 Hamiltonian term: 0.5146
Parameter # 8 Overlap term: -0.2479
Parameter # 9 Hamiltonian term: 0.2895
Parameter # 9 Overlap term: -0.1382
Parameter # 10 Hamiltonian term: 0.113
Parameter # 10 Overlap term: -0.05434
Parameter # 11 Hamiltonian term: 0.06702
Parameter # 11 Overlap term: -0.03449
Parameter # 12 Hamiltonian term: 0.4196
Parameter # 12 Overlap term: -0.2505
Parameter # 13 Hamiltonian term: 1.124
Parameter # 13 Overlap term: -0.593
Parameter # 14 Hamiltonian term: 1.565
Parameter # 14 Overlap term: -0.805
Parameter # 15 Hamiltonian term: 1.421
Parameter # 15 Overlap term: -0.7433
Parameter # 16 Hamiltonian term: 1.075
Parameter # 16 Overlap term: -0.5295
Parameter # 17 Hamiltonian term: 0.7863
Parameter # 17 Overlap term: -0.4138
Parameter # 18 Hamiltonian term: 0.6598
Parameter # 18 Overlap term: -0.3247
Parameter # 19 Hamiltonian term: 0.397
Parameter # 19 Overlap term: -0.1936
Parameter # 20 Hamiltonian term: 0.1611
Parameter # 20 Overlap term: -0.08142
Parameter # 21 Hamiltonian term: 0.229
Parameter # 21 Overlap term: -0.1424
Parameter # 22 Hamiltonian term: 1.322
Parameter # 22 Overlap term: -0.6762
Parameter # 23 Hamiltonian term: 2.259
Parameter # 23 Overlap term: -1.159
Parameter # 24 Hamiltonian term: 2.47
Parameter # 24 Overlap term: -1.311
Parameter # 25 Hamiltonian term: 2.648
Parameter # 25 Overlap term: -1.337
Parameter # 26 Hamiltonian term: 2.822
Parameter # 26 Overlap term: -1.435
Parameter # 27 Hamiltonian term: 3.02
Parameter # 27 Overlap term: -1.605
Parameter # 28 Hamiltonian term: 3.097
Parameter # 28 Overlap term: -1.586
Parameter # 29 Hamiltonian term: 2.374
Parameter # 29 Overlap term: -1.289
Parameter # 30 Hamiltonian term: 1.694
Parameter # 30 Overlap term: -0.8772
Number of Parameters: 31
Parameter Type step sizes:  TJF_2Body_eta=0.01 TJF_1Body_eta=0.01 F_eta=0.001 CI_eta=0.2 Orb_eta=0.001
Using RMSprop
  Execution time = 0.204
  </log>
  <optVariables href="descent_ref.s001.opt.xml">
CSFcoeff_1 -4.948646e-01                3 1 ON  0
uu_0       5.702018e-01                 1 1 ON  1
uu_1       3.700207e-01                 1 1 ON  2
uu_2       2.094705e-01                 1 1 ON  3
uu_3       9.488819e-02                 1 1 ON  4
uu_4       4.678418e-03                 1 1 ON  5
uu_5       -3.292341e-02                1 1 ON  6
uu_6       -2.568133e-02                1 1 ON  7
uu_7       6.326960e-03                 1 1 ON  8
uu_8       3.685049e-02                 1 1 ON  9
uu_9       2.920934e-02                 1 1 ON  10
ud_0       9.167813e-01                 1 1 ON  11
ud_1       5.783029e-01                 1 1 ON  12
ud_2       3.470487e-01                 1 1 ON  13
ud_3       1.895048e-01                 1 1 ON  14
ud_4       8.785197e-02                 1 1 ON  15
ud_5       3.224009e-02                 1 1 ON  16
ud_6       3.800171e-02                 1 1 ON  17
ud_7       6.100260e-02                 1 1 ON  18
ud_8       7.648286e-02                 1 1 ON  19
ud_9       5.596279e-02                 1 1 ON  20
eH_0       1.710638e-02                 1 1 ON  21
eH_1       2.936406e-02                 1 1 ON  22
eH_2       -1.134987e-01                1 1 ON  23
eH_3       -9.388101e-02                1 1 ON  24
eH_4       -1.086131e-01                1 1 ON  25
eH_5       -7.941972e-02                1 1 ON  26
eH_6       -3.523212e-02                1 1 ON  27
eH_7       -6.836243e-03                1 1 ON  28
eH_8       1.089288e-02                 1 1 ON  29
eH_9       4.830644e-03                 1 1 ON  30
  </optVariables>
   Restore the number of walkers to 1, removing 0 walkers.
</opt>
</optimization-report>
  QMC Execution time = 0.2048 secs

=========================================================
  Start QMCFixedSampleLinearOptimize
  File Root descent_ref.s002 append = no 
=========================================================
  Skip QMCDriver::putQMCInfo 
  Resetting Properties of the walkers 1 x 13

=========================================================
  Start VMC
  File Root descent_ref.s002 append = no 
=========================================================
Using existing walkers 
  Resetting Properties of the walkers 1 x 13

<vmc function="put">
  qmc_counter=2  my_counter=2
  time step      = 0.05
  blocks         = 2000
  steps          = 3
  substeps       = 1
  current        = 0
  target samples = 2e+04
  walkers/mpi    = 1

  stepsbetweensamples = 1
<parameter name="blm_length" condition="int">0</parameter>
<parameter name="blocks" condition="int">2000</parameter>
<parameter name="blocks_between_recompute" condition="int">0</parameter>
<parameter name="check_properties" condition="int">100</parameter>
<parameter name="checkproperties" condition="int">100</parameter>
<parameter name="current" condition="int">0</parameter>
<parameter name="descent_length" condition="int">0</parameter>
<parameter name="dmcwalkersperthread" condition="real">5000</parameter>
<parameter name="hybrid_descent_samples" condition="real">0</parameter>
<parameter name="maxcpusecs" condition="real">3.6e+05</parameter>
<parameter name="minmethod" condition="string">descent</parameter>
<parameter name="record_configs" condition="int">0</parameter>
<parameter name="record_walkers" condition="int">1</parameter>
<parameter name="recordconfigs" condition="int">0</parameter>
<parameter name="recordwalkers" condition="int">1</parameter>
<parameter name="rewind" condition="int">0</parameter>
<parameter name="samples" condition="real">2e+04</parameter>
<parameter name="samplesperthread" condition="real">5000</parameter>
<parameter name="steps" condition="int">3</parameter>
<parameter name="stepsbetweensamples" condition="int">1</parameter>
<parameter name="store_configs" condition="int">0</parameter>
<parameter name="storeconfigs" condition="int">0</parameter>
<parameter name="sub_steps" condition="int">1</parameter>
<parameter name="substeps" condition="int">1</parameter>
<parameter name="tau" condition="au">0.05</parameter>
<parameter name="time_step" condition="au">0.05</parameter>
<parameter name="timestep" condition="au">0.05</parameter>
<parameter name="use_drift" condition="string">no</parameter>
<parameter name="usedrift" condition="string">no</parameter>
<parameter name="walkers" condition="int">1</parameter>
<parameter name="warmup_steps" condition="int">1000</parameter>
<parameter name="warmupsteps" condition="int">1000</parameter>
  DumpConfig==false Nothing (configurations, state) will be saved.
  Walker Samples are dumped every 1 steps.
</vmc>
  Set drift_modifier UNR parameter a = 1
  EstimatorManagerBase::add replace LocalEnergy estimator.
  Set drift_modifier UNR parameter a = 1
  EstimatorManagerBase::add replace LocalEnergy estimator.
<optimization-report>
<vmc stage="main" blocks="2000">
  Cannot make clones again. Use existing 1 clones
  Initial partition of walkers 0 1 
  Using Particle by Particle moves
  Walker moves without drift
  Total Sample Size   =20000
  Walker distribution on root = 0 1 
===== Memory Usage after the buffer registration =====
Available memory on node 0, free + buffers : 13486 MB
Memory footprint by rank 0 on node 0       : 36 MB
==================================================
====================================================
  SimpleFixedNodeBranch::finalize after a VMC block
    QMC counter        = 2
    time step          = 0.05
    reference energy   = -2.00176
    reference variance = 0.0217125
====================================================
  Execution time = 0.09917
</vmc>
<opt stage="setup">
  <log>
   Reading configurations from h5FileRoot descent_ref.s002
  Using Nonlocal PP in Opt: no
   Number of samples loaded to each thread : 5000 
  VMC Eavg = -2.054
  VMC Evar = 0.1778
  Total weights = 2e+04
  Execution time = 0.05457
  </log>
</opt>
<opt stage="main" walkers="20000">
  <log>
Iteration: 1/1
  VMC Eavg = -2.054
  VMC Evar = 0.1778
  Total weights = 2e+04
This is e_avg: -2.054
This is total weights: 2e+04
Parameter # 0 Hamiltonian term: 1.333
Parameter # 0 Overlap term: -0.7222
Parameter # 1 Hamiltonian term: 0.001206
Parameter # 1 Overlap term: -0.0007524
Parameter # 2 Hamiltonian term: 0.03658
Parameter # 2 Overlap term: -0.01577
Parameter # 3 Hamiltonian term: 0.1896
Parameter # 3 Overlap term: -0.09682
Parameter # 4 Hamiltonian term: 0.5207
Parameter # 4 Overlap term: -0.2547
Parameter # 5 Hamiltonian term: 0.7277
Parameter # 5 Overlap term: -0.3768
Parameter # 6 Hamiltonian term: 0.7856
Parameter # 6 Overlap term: -0.3698
Parameter # 7 Hamiltonian term: 0.7355
Parameter # 7 Overlap term: -0.3342
Parameter # 8 Hamiltonian term: 0.5575
Parameter # 8 Overlap term: -0.2792
Parameter # 9 Hamiltonian term: 0.3511
Parameter # 9 Overlap term: -0.1655
Parameter # 10 Hamiltonian term: 0.1386
Parameter # 10 Overlap term: -0.07314
Parameter # 11 Hamiltonian term: 0.0583
Parameter # 11 Overlap term: -0.02704
Parameter # 12 Hamiltonian term: 0.3945
Parameter # 12 Overlap term: -0.2011
Parameter # 13 Hamiltonian term: 1.121
Parameter # 13 Overlap term: -0.5199
Parameter # 14 Hamiltonian term: 1.625
Parameter # 14 Overlap term: -0.7739
Parameter # 15 Hamiltonian term: 1.489
Parameter # 15 Overlap term: -0.7514
Parameter # 16 Hamiltonian term: 1.1
Parameter # 16 Overlap term: -0.5364
Parameter # 17 Hamiltonian term: 0.9118
Parameter # 17 Overlap term: -0.4281
Parameter # 18 Hamiltonian term: 0.7395
Parameter # 18 Overlap term: -0.3796
Parameter # 19 Hamiltonian term: 0.4759
Parameter # 19 Overlap term: -0.2347
Parameter # 20 Hamiltonian term: 0.227
Parameter # 20 Overlap term: -0.1013
Parameter # 21 Hamiltonian term: 0.2649
Parameter # 21 Overlap term: -0.1438
Parameter # 22 Hamiltonian term: 1.372
Parameter # 22 Overlap term: -0.6894
Parameter # 23 Hamiltonian term: 2.347
Parameter # 23 Overlap term: -1.16
Parameter # 24 Hamiltonian term: 2.759
Parameter # 24 Overlap term: -1.275
Parameter # 25 Hamiltonian term: 2.733
Parameter # 25 Overlap term: -1.32
Parameter # 26 Hamiltonian term: 2.866
Parameter # 26 Overlap term: -1.421
Parameter # 27 Hamiltonian term: 3.227
Parameter # 27 Overlap term: -1.558
Parameter # 28 Hamiltonian term: 3.254
Parameter # 28 Overlap term: -1.529
Parameter # 29 Hamiltonian term: 2.503
Parameter # 29 Overlap term: -1.258
Parameter # 30 Hamiltonian term: 1.706
Parameter # 30 Overlap term: -0.8897
Number of Parameters: 31
Parameter Type step sizes:  TJF_2Body_eta=0.01 TJF_1Body_eta=0.01 F_eta=0.001 CI_eta=0.2 Orb_eta=0.001
Using RMSprop
  Execution time = 0.2068
  </log>
  <optVariables href="descent_ref.s002.opt.xml">
CSFcoeff_1 -4.818498e-01                3 1 ON  0
uu_0       5.703191e-01                 1 1 ON  1
uu_1       3.694016e-01                 1 1 ON  2
uu_2       2.112893e-01                 1 1 ON  3
uu_3       9.436959e-02                 1 1 ON  4
uu_4       6.801985e-03                 1 1 ON  5
uu_5       -3.392080e-02                1 1 ON  6
uu_6       -2.820377e-02                1 1 ON  7
uu_7       8.338508e-03                 1 1 ON  8
uu_8       3.650698e-02                 1 1 ON  9
uu_9       3.053785e-02                 1 1 ON  10
ud_0       9.164672e-01                 1 1 ON  11
ud_1       5.786312e-01                 1 1 ON  12
ud_2       3.453545e-01                 1 1 ON  13
ud_3       1.884115e-01                 1 1 ON  14
ud_4       8.926414e-02                 1 1 ON  15
ud_5       3.310934e-02                 1 1 ON  16
ud_6       3.542361e-02                 1 1 ON  17
ud_7       6.456358e-02                 1 1 ON  18
ud_8       7.695738e-02                 1 1 ON  19
ud_9       5.304594e-02                 1 1 ON  20
eH_0       1.811031e-02                 1 1 ON  21
eH_1       2.968820e-02                 1 1 ON  22
eH_2       -1.129813e-01                1 1 ON  23
eH_3       -9.587493e-02                1 1 ON  24
eH_4       -1.090758e-01                1 1 ON  25
eH_5       -7.733351e-02                1 1 ON  26
eH_6       -3.608032e-02                1 1 ON  27
eH_7       -7.396270e-03                1 1 ON  28
eH_8       1.224907e-02                 1 1 ON  29
eH_9       6.230326e-03                 1 1 ON  30
  </optVariables>
   Restore the number of walkers to 1, removing 0 walkers.
</opt>
</optimization-report>
  QMC Execution time = 0.2076 secs

=========================================================
  Start QMCFixedSampleLinearOptimize
  File Root descent_ref.s003 append = no 
=========================================================
  Skip QMCDriver::putQMCInfo 
  Resetting Properties of the walkers 1 x 13

=========================================================
  Start VMC
  File Root descent_ref.s003 append = no 
=========================================================
Using existing walkers 
  Resetting Properties of the walkers 1 x 13

<vmc function="put">
  qmc_counter=3  my_counter=3
  time step      = 0.05
  blocks         = 2000
  steps          = 3
  substeps       = 1
  current        = 0
  target samples = 2e+04
  walkers/mpi    = 1

  stepsbetweensamples = 1
<parameter name="blm_length" condition="int">0</parameter>
<parameter name="blocks" condition="int">2000</parameter>
<parameter name="blocks_between_recompute" condition="int">0</parameter>
<parameter name="check_properties" condition="int">100</parameter>
<parameter name="checkproperties" condition="int">100</parameter>
<parameter name="current" condition="int">0</parameter>
<parameter name="descent_length" condition="int">0</parameter>
<parameter name="dmcwalkersperthread" condition="real">5000</parameter>
<parameter name="hybrid_descent_samples" condition="real">0</parameter>
<parameter name="maxcpusecs" condition="real">3.6e+05</parameter>
<parameter name="minmethod" condition="string">descent</parameter>
<parameter name="record_configs" condition="int">0</parameter>
<parameter name="record_walkers" condition="int">1</parameter>
<parameter name="recordconfigs" condition="int">0</parameter>
<parameter name="recordwalkers" condition="int">1</parameter>
<parameter name="rewind" condition="int">0</parameter>
<parameter name="samples" condition="real">2e+04</parameter>
<parameter name="samplesperthread" condition="real">5000</parameter>
<parameter name="steps" condition="int">3</parameter>
<parameter name="stepsbetweensamples" condition="int">1</parameter>
<parameter name="store_configs" condition="int">0</parameter>
<parameter name="storeconfigs" condition="int">0</parameter>
<parameter name="sub_steps" condition="int">1</parameter>
<parameter name="substeps" condition="int">1</parameter>
<parameter name="tau" condition="au">0.05</parameter>
<parameter name="time_step" condition="au">0.05</parameter>
<parameter name="timestep" condition="au">0.05</parameter>
<parameter name="use_drift" condition="string">no</parameter>
<parameter name="usedrift" condition="string">no</parameter>
<parameter name="walkers" condition="int">1</parameter>
<parameter name="warmup_steps" condition="int">1000</parameter>
<parameter name="warmupsteps" condition="int">1000</parameter>
  DumpConfig==false Nothing (configurations, state) will be saved.
  Walker Samples are dumped every 1 steps.
</vmc>
  Set drift_modifier UNR parameter a = 1
  EstimatorManagerBase::add replace LocalEnergy estimator.
  Set drift_modifier UNR parameter a = 1
  EstimatorManagerBase::add replace LocalEnergy estimator.
<optimization-report>
<vmc stage="main" blocks="2000">
  Cannot make clones again. Use existing 1 clones
  Initial partition of walkers 0 1 
  Using Particle by Particle moves
  Walker moves without drift
  Total Sample Size   =20000
  Walker distribution on root = 0 1 
===== Memory Usage after the buffer registration =====
Available memory on node 0, free + buffers : 13485 MB
Memory footprint by rank 0 on node 0       : 36 MB
==================================================
====================================================
  SimpleFixedNodeBranch::finalize after a VMC block
    QMC counter        = 3
    time step          = 0.05
    reference energy   = -2.64906
    reference variance = 0.0199632
====================================================
  Execution time = 0.09948
</vmc>
<opt stage="setup">
  <log>
   Reading configurations from h5FileRoot descent_ref.s003
  Using Nonlocal PP in Opt: no
   Number of samples loaded to each thread : 5000 
  VMC Eavg = -2.093
  VMC Evar = 0.1533
  Total weights = 2e+04
  Execution time = 0.05176
  </log>
</opt>
<opt stage="main" walkers="20000">
  <log>
Iteration: 1/1
  VMC Eavg = -2.093
  VMC Evar = 0.1533
  Total weights = 2e+04
This is e_avg: -2.093
This is total weights: 2e+04
Parameter # 0 Hamiltonian term: 1.342
Parameter # 0 Overlap term: -0.6988
Parameter # 1 Hamiltonian term: 0.00202
Parameter # 1 Overlap term: -0.0002209
Parameter # 2 Hamiltonian term: 0.03086
Parameter # 2 Overlap term: -0.008761
Parameter # 3 Hamiltonian term: 0.1789
Parameter # 3 Overlap term: -0.074
Parameter # 4 Hamiltonian term: 0.4776
Parameter # 4 Overlap term: -0.2368
Parameter # 5 Hamiltonian term: 0.7739
Parameter # 5 Overlap term: -0.3747
Parameter # 6 Hamiltonian term: 0.7889
Parameter # 6 Overlap term: -0.3995
Parameter # 7 Hamiltonian term: 0.8055
Parameter # 7 Overlap term: -0.3697
Parameter # 8 Hamiltonian term: 0.6158
Parameter # 8 Overlap term: -0.2994
Parameter # 9 Hamiltonian term: 0.331
Parameter # 9 Overlap term: -0.1609
Parameter # 10 Hamiltonian term: 0.1408
Parameter # 10 Overlap term: -0.05564
Parameter # 11 Hamiltonian term: 0.04974
Parameter # 11 Overlap term: -0.03
Parameter # 12 Hamiltonian term: 0.4591
Parameter # 12 Overlap term: -0.218
Parameter # 13 Hamiltonian term: 1.213
Parameter # 13 Overlap term: -0.567
Parameter # 14 Hamiltonian term: 1.659
Parameter # 14 Overlap term: -0.8237
Parameter # 15 Hamiltonian term: 1.539
Parameter # 15 Overlap term: -0.74
Parameter # 16 Hamiltonian term: 1.117
Parameter # 16 Overlap term: -0.5086
Parameter # 17 Hamiltonian term: 0.8767
Parameter # 17 Overlap term: -0.4148
Parameter # 18 Hamiltonian term: 0.7416
Parameter # 18 Overlap term: -0.3538
Parameter # 19 Hamiltonian term: 0.4521
Parameter # 19 Overlap term: -0.2202
Parameter # 20 Hamiltonian term: 0.1863
Parameter # 20 Overlap term: -0.09161
Parameter # 21 Hamiltonian term: 0.3286
Parameter # 21 Overlap term: -0.1334
Parameter # 22 Hamiltonian term: 1.477
Parameter # 22 Overlap term: -0.6714
Parameter # 23 Hamiltonian term: 2.358
Parameter # 23 Overlap term: -1.196
Parameter # 24 Hamiltonian term: 2.681
Parameter # 24 Overlap term: -1.342
Parameter # 25 Hamiltonian term: 2.982
Parameter # 25 Overlap term: -1.338
Parameter # 26 Hamiltonian term: 3.045
Parameter # 26 Overlap term: -1.431
Parameter # 27 Hamiltonian term: 3.148
Parameter # 27 Overlap term: -1.59
Parameter # 28 Hamiltonian term: 3.24
Parameter # 28 Overlap term: -1.536
Parameter # 29 Hamiltonian term: 2.593
Parameter # 29 Overlap term: -1.217
Parameter # 30 Hamiltonian term: 1.765
Parameter # 30 Overlap term: -0.847
Number of Parameters: 31
Parameter Type step sizes:  TJF_2Body_eta=0.01 TJF_1Body_eta=0.01 F_eta=0.001 CI_eta=0.2 Orb_eta=0.001
Using RMSprop
  Execution time = 0.205
  </log>
  <optVariables href="descent_ref.s003.opt.xml">
CSFcoeff_1 -4.673355e-01                3 1 ON  0
uu_0       5.670662e-01                 1 1 ON  1
uu_1       3.675252e-01                 1 1 ON  2
uu_2       2.076358e-01                 1 1 ON  3
uu_3       9.509992e-02                 1 1 ON  4
uu_4       6.828659e-03                 1 1 ON  5
uu_5       -3.179668e-02                1 1 ON  6
uu_6       -2.951641e-02                1 1 ON  7
uu_7       9.118990e-03                 1 1 ON  8
uu_8       3.702237e-02                 1 1 ON  9
uu_9       2.763752e-02                 1 1 ON  10
ud_0       9.183537e-01                 1 1 ON  11
ud_1       5.781427e-01                 1 1 ON  12
ud_2       3.448054e-01                 1 1 ON  13
ud_3       1.910334e-01                 1 1 ON  14
ud_4       8.920310e-02                 1 1 ON  15
ud_5       2.971909e-02                 1 1 ON  16
ud_6       3.524519e-02                 1 1 ON  17
ud_7       6.367645e-02                 1 1 ON  18
ud_8       7.739512e-02                 1 1 ON  19
ud_9       5.526900e-02                 1 1 ON  20
eH_0       1.518535e-02                 1 1 ON  21
eH_1       2.896346e-02                 1 1 ON  22
eH_2       -1.108927e-01                1 1 ON  23
eH_3       -9.346706e-02                1 1 ON  24
eH_4       -1.129538e-01                1 1 ON  25
eH_5       -7.977536e-02                1 1 ON  26
eH_6       -3.274388e-02                1 1 ON  27
eH_7       -7.416596e-03                1 1 ON  28
eH_8       1.025733e-02                 1 1 ON  29
eH_9       5.962769e-03                 1 1 ON  30
  </optVariables>
   Restore the number of walkers to 1, removing 0 walkers.
</opt>
</optimization-report>
  QMC Execution time = 0.2058 secs

=========================================================
  Start QMCFixedSampleLinearOptimize
  File Root descent_ref.s004 append = no 
=========================================================
  Skip QMCDriver::putQMCInfo 
  Resetting Properties of the walkers 1 x 13

=========================================================
  Start VMC
  File Root descent_ref.s004 append = no 
=========================================================
Using existing walkers 
  Resetting Properties of the walkers 1 x 13

<vmc function="put">
  qmc_counter=4  my_counter=4
  time step      = 0.05
  blocks         = 2000
  steps          = 3
  substeps       = 1
  current        = 0
  target samples = 2e+04
  walkers/mpi    = 1

  stepsbetweensamples = 1
<parameter name="blm_length" condition="int">0</parameter>
<parameter name="blocks" condition="int">2000</parameter>
<parameter name="blocks_between_recompute" condition="int">0</parameter>
<parameter name="check_properties" condition="int">100</parameter>
<parameter name="checkproperties" condition="int">100</parameter>
<parameter name="current" condition="int">0</parameter>
<parameter name="descent_length" condition="int">0</parameter>
<parameter name="dmcwalkersperthread" condition="real">5000</parameter>
<parameter name="hybrid_descent_samples" condition="real">0</parameter>
<parameter name="maxcpusecs" condition="real">3.6e+05</parameter>
<parameter name="minmethod" condition="string">descent</parameter>
<parameter name="record_configs" condition="int">0</parameter>
<parameter name="record_walkers" condition="int">1</parameter>
<parameter name="recordconfigs" condition="int">0</parameter>
<parameter name="recordwalkers" condition="int">1</parameter>
<parameter name="rewind" condition="int">0</parameter>
<parameter name="samples" condition="real">2e+04</parameter>
<parameter name="samplesperthread" condition="real">5000</parameter>
<parameter name="steps" condition="int">3</parameter>
<parameter name="stepsbetweensamples" condition="int">1</parameter>
<parameter name="store_configs" condition="int">0</parameter>
<parameter name="storeconfigs" condition="int">0</parameter>
<parameter name="sub_steps" condition="int">1</parameter>
<parameter name="substeps" condition="int">1</parameter>
<parameter name="tau" condition="au">0.05</parameter>
<parameter name="time_step" condition="au">0.05</parameter>
<parameter name="timestep" condition="au">0.05</parameter>
<parameter name="use_drift" condition="string">no</parameter>
<parameter name="usedrift" condition="string">no</parameter>
<parameter name="walkers" condition="int">1</parameter>
<parameter name="warmup_steps" condition="int">1000</parameter>
<parameter name="warmupsteps" condition="int">1000</parameter>
  DumpConfig==false Nothing (configurations, state) will be saved.
  Walker Samples are dumped every 1 steps.
</vmc>
  Set drift_modifier UNR parameter a = 1
  EstimatorManagerBase::add replace LocalEnergy estimator.
  Set drift_modifier UNR parameter a = 1
  EstimatorManagerBase::add replace LocalEnergy estimator.
<optimization-report>
<vmc stage="main" blocks="2000">
  Cannot make clones again. Use existing 1 clones
  Initial partition of walkers 0 1 
  Using Particle by Particle moves
  Walker moves without drift
  Total Sample Size   =20000
  Walker distribution on root = 0 1 
===== Memory Usage after the buffer registration =====
Available memory on node 0, free + buffers : 13485 MB
Memory footprint by rank 0 on node 0       : 36 MB
==================================================
====================================================
  SimpleFixedNodeBranch::finalize after a VMC block
    QMC counter        = 4
    time step          = 0.05
    reference energy   = -1.85519
    reference variance = 0.0420059
====================================================
  Execution time = 0.09938
</vmc>
<opt stage="setup">
  <log>
   Reading configurations from h5FileRoot descent_ref.s004
  Using Nonlocal PP in Opt: no
   Number of samples loaded to each thread : 5000 
  VMC Eavg = -1.983
  VMC Evar = 0.2671
  Total weights = 2e+04
  Execution time = 0.05221
  </log>
</opt>
<opt stage="main" walkers="20000">
  <log>
Iteration: 1/1
  VMC Eavg = -1.983
  VMC Evar = 0.2671
  Total weights = 2e+04
This is e_avg: -1.983
This is total weights: 2e+04
Parameter # 0 Hamiltonian term: 1.639
Parameter # 0 Overlap term: -0.9557
Parameter # 1 Hamiltonian term: 0.0004867
Parameter # 1 Overlap term: -0.001017
Parameter # 2 Hamiltonian term: 0.03858
Parameter # 2 Overlap term: -0.02073
Parameter # 3 Hamiltonian term: 0.1978
Parameter # 3 Overlap term: -0.1224
Parameter # 4 Hamiltonian term: 0.5882
Parameter # 4 Overlap term: -0.3062
Parameter # 5 Hamiltonian term: 0.8225
Parameter # 5 Overlap term: -0.434
Parameter # 6 Hamiltonian term: 0.7815
Parameter # 6 Overlap term: -0.415
Parameter # 7 Hamiltonian term: 0.6828
Parameter # 7 Overlap term: -0.3267
Parameter # 8 Hamiltonian term: 0.5087
Parameter # 8 Overlap term: -0.2158
Parameter # 9 Hamiltonian term: 0.2321
Parameter # 9 Overlap term: -0.1111
Parameter # 10 Hamiltonian term: 0.08639
Parameter # 10 Overlap term: -0.03836
Parameter # 11 Hamiltonian term: 0.07786
Parameter # 11 Overlap term: -0.03081
Parameter # 12 Hamiltonian term: 0.4419
Parameter # 12 Overlap term: -0.2422
Parameter # 13 Hamiltonian term: 1.148
Parameter # 13 Overlap term: -0.6153
Parameter # 14 Hamiltonian term: 1.663
Parameter # 14 Overlap term: -0.8464
Parameter # 15 Hamiltonian term: 1.5
Parameter # 15 Overlap term: -0.7647
Parameter # 16 Hamiltonian term: 1.02
Parameter # 16 Overlap term: -0.5186
Parameter # 17 Hamiltonian term: 0.835
Parameter # 17 Overlap term: -0.381
Parameter # 18 Hamiltonian term: 0.6454
Parameter # 18 Overlap term: -0.3153
Parameter # 19 Hamiltonian term: 0.3984
Parameter # 19 Overlap term: -0.1886
Parameter # 20 Hamiltonian term: 0.1488
Parameter # 20 Overlap term: -0.07555
Parameter # 21 Hamiltonian term: 0.2754
Parameter # 21 Overlap term: -0.1421
Parameter # 22 Hamiltonian term: 1.369
Parameter # 22 Overlap term: -0.6884
Parameter # 23 Hamiltonian term: 2.314
Parameter # 23 Overlap term: -1.182
Parameter # 24 Hamiltonian term: 2.639
Parameter # 24 Overlap term: -1.333
Parameter # 25 Hamiltonian term: 2.683
Parameter # 25 Overlap term: -1.38
Parameter # 26 Hamiltonian term: 2.881
Parameter # 26 Overlap term: -1.474
Parameter # 27 Hamiltonian term: 3.232
Parameter # 27 Overlap term: -1.637
Parameter # 28 Hamiltonian term: 3.18
Parameter # 28 Overlap term: -1.613
Parameter # 29 Hamiltonian term: 2.512
Parameter # 29 Overlap term: -1.292
Parameter # 30 Hamiltonian term: 1.704
Parameter # 30 Overlap term: -0.8789
Number of Parameters: 31
Parameter Type step sizes:  TJF_2Body_eta=0.01 TJF_1Body_eta=0.01 F_eta=0.001 CI_eta=0.2 Orb_eta=0.001
Using RMSprop
  Execution time = 0.2055
  </log>
  <optVariables href="descent_ref.s004.opt.xml">
CSFcoeff_1 -4.265968e-01                3 1 ON  0
uu_0       5.708724e-01                 1 1 ON  1
uu_1       3.685698e-01                 1 1 ON  2
uu_2       2.127450e-01                 1 1 ON  3
uu_3       9.585172e-02                 1 1 ON  4
uu_4       8.949059e-03                 1 1 ON  5
uu_5       -3.041630e-02                1 1 ON  6
uu_6       -3.138805e-02                1 1 ON  7
uu_7       4.176093e-03                 1 1 ON  8
uu_8       3.601218e-02                 1 1 ON  9
uu_9       2.703796e-02                 1 1 ON  10
ud_0       9.153980e-01                 1 1 ON  11
ud_1       5.810442e-01                 1 1 ON  12
ud_2       3.478075e-01                 1 1 ON  13
ud_3       1.910822e-01                 1 1 ON  14
ud_4       8.983182e-02                 1 1 ON  15
ud_5       3.127135e-02                 1 1 ON  16
ud_6       3.101324e-02                 1 1 ON  17
ud_7       6.164238e-02                 1 1 ON  18
ud_8       7.560604e-02                 1 1 ON  19
ud_9       5.523273e-02                 1 1 ON  20
eH_0       1.625755e-02                 1 1 ON  21
eH_1       2.909385e-02                 1 1 ON  22
eH_2       -1.109348e-01                1 1 ON  23
eH_3       -9.387849e-02                1 1 ON  24
eH_4       -1.103866e-01                1 1 ON  25
eH_5       -7.736175e-02                1 1 ON  26
eH_6       -3.328076e-02                1 1 ON  27
eH_7       -7.216465e-03                1 1 ON  28
eH_8       1.242399e-02                 1 1 ON  29
eH_9       6.644193e-03                 1 1 ON  30
  </optVariables>
   Restore the number of walkers to 1, removing 0 walkers.
</opt>
</optimization-report>
  QMC Execution time = 0.2063 secs

=========================================================
  Start QMCFixedSampleLinearOptimize
  File Root descent_ref.s005 append = no 
=========================================================
  Skip QMCDriver::putQMCInfo 
  Resetting Properties of the walkers 1 x 13

=========================================================
  Start VMC
  File Root descent_ref.s005 append = no 
=========================================================
Using existing walkers 
  Resetting Properties of the walkers 1 x 13

<vmc function="put">
  qmc_counter=5  my_counter=5
  time step      = 0.05
  blocks         = 2000
  steps          = 3
  substeps       = 1
  current        = 0
  target samples = 2e+04
  walkers/mpi    = 1

  stepsbetweensamples = 1
<parameter name="blm_length" condition="int">0</parameter>
<parameter name="blocks" condition="int">2000</parameter>
<parameter name="blocks_between_recompute" condition="int">0</parameter>
<parameter name="check_properties" condition="int">100</parameter>
<parameter name="checkproperties" condition="int">100</parameter>
<parameter name="current" condition="int">0</parameter>
<parameter name="descent_length" condition="int">0</parameter>
<parameter name="dmcwalkersperthread" condition="real">5000</parameter>
<parameter name="hybrid_descent_samples" condition="real">0</parameter>
<parameter name="maxcpusecs" condition="real">3.6e+05</parameter>
<parameter name="minmethod" condition="string">descent</parameter>
<parameter name="record_configs" condition="int">0</parameter>
<parameter name="record_walkers" condition="int">1</parameter>
<parameter name="recordconfigs" condition="int">0</parameter>
<parameter name="recordwalkers" condition="int">1</parameter>
<parameter name="rewind" condition="int">0</parameter>
<parameter name="samples" condition="real">2e+04</parameter>
<parameter name="samplesperthread" condition="real">5000</parameter>
<parameter name="steps" condition="int">3</parameter>
<parameter name="stepsbetweensamples" condition="int">1</parameter>
<parameter name="store_configs" condition="int">0</parameter>
<parameter name="storeconfigs" condition="int">0</parameter>
<parameter name="sub_steps" condition="int">1</parameter>
<parameter name="substeps" condition="int">1</parameter>
<parameter name="tau" condition="au">0.05</parameter>
<parameter name="time_step" condition="au">0.05</parameter>
<parameter name="timestep" condition="au">0.05</parameter>
<parameter name="use_drift" condition="string">no</parameter>
<parameter name="usedrift" condition="string">no</parameter>
<parameter name="walkers" condition="int">1</parameter>
<parameter name="warmup_steps" condition="int">1000</parameter>
<parameter name="warmupsteps" condition="int">1000</parameter>
  DumpConfig==false Nothing (configurations, state) will be saved.
  Walker Samples are dumped every 1 steps.
</vmc>
  Set drift_modifier UNR parameter a = 1
  EstimatorManagerBase::add replace LocalEnergy estimator.
  Set drift_modifier UNR parameter a = 1
  EstimatorManagerBase::add replace LocalEnergy estimator.
<optimization-report>
<vmc stage="main" blocks="2000">
  Cannot make clones again. Use existing 1 clones
  Initial partition of walkers 0 1 
  Using Particle by Particle moves
  Walker moves without drift
  Total Sample Size   =20000
  Walker distribution on root = 0 1 
===== Memory Usage after the buffer registration =====
Available memory on node 0, free + buffers : 13485 MB
Memory footprint by rank 0 on node 0       : 36 MB
==================================================
====================================================
  SimpleFixedNodeBranch::finalize after a VMC block
    QMC counter        = 5
    time step          = 0.05
    reference energy   = -2.13326
    reference variance = 0.0375984
====================================================
  Execution time = 0.102
</vmc>
<opt stage="setup">
  <log>
   Reading configurations from h5FileRoot descent_ref.s005
  Using Nonlocal PP in Opt: no
   Number of samples loaded to each thread : 5000 
  VMC Eavg = -2.067
  VMC Evar = 0.1674
  Total weights = 2e+04
  Execution time = 0.05193
  </log>
</opt>
<opt stage="main" walkers="20000">
  <log>
Iteration: 1/1
  VMC Eavg = -2.067
  VMC Evar = 0.1674
  Total weights = 2e+04
This is e_avg: -2.067
This is total weights: 2e+04
Parameter # 0 Hamiltonian term: 1.443
Parameter # 0 Overlap term: -0.7784
Parameter # 1 Hamiltonian term: 0.001732
Parameter # 1 Overlap term: -0.0008103
Parameter # 2 Hamiltonian term: 0.02422
Parameter # 2 Overlap term: -0.01725
Parameter # 3 Hamiltonian term: 0.1971
Parameter # 3 Overlap term: -0.09691
Parameter # 4 Hamiltonian term: 0.5396
Parameter # 4 Overlap term: -0.2582
Parameter # 5 Hamiltonian term: 0.7933
Parameter # 5 Overlap term: -0.3919
Parameter # 6 Hamiltonian term: 0.8011
Parameter # 6 Overlap term: -0.4019
Parameter # 7 Hamiltonian term: 0.7468
Parameter # 7 Overlap term: -0.3528
Parameter # 8 Hamiltonian term: 0.5657
Parameter # 8 Overlap term: -0.2632
Parameter # 9 Hamiltonian term: 0.3101
Parameter # 9 Overlap term: -0.1419
Parameter # 10 Hamiltonian term: 0.1078
Parameter # 10 Overlap term: -0.05708
Parameter # 11 Hamiltonian term: 0.06026
Parameter # 11 Overlap term: -0.02903
Parameter # 12 Hamiltonian term: 0.4626
Parameter # 12 Overlap term: -0.2197
Parameter # 13 Hamiltonian term: 1.149
Parameter # 13 Overlap term: -0.5732
Parameter # 14 Hamiltonian term: 1.652
Parameter # 14 Overlap term: -0.8049
Parameter # 15 Hamiltonian term: 1.523
Parameter # 15 Overlap term: -0.7246
Parameter # 16 Hamiltonian term: 1.121
Parameter # 16 Overlap term: -0.5182
Parameter # 17 Hamiltonian term: 0.8531
Parameter # 17 Overlap term: -0.4394
Parameter # 18 Hamiltonian term: 0.7413
Parameter # 18 Overlap term: -0.3584
Parameter # 19 Hamiltonian term: 0.4539
Parameter # 19 Overlap term: -0.2085
Parameter # 20 Hamiltonian term: 0.1824
Parameter # 20 Overlap term: -0.08874
Parameter # 21 Hamiltonian term: 0.3386
Parameter # 21 Overlap term: -0.1402
Parameter # 22 Hamiltonian term: 1.351
Parameter # 22 Overlap term: -0.695
Parameter # 23 Hamiltonian term: 2.369
Parameter # 23 Overlap term: -1.18
Parameter # 24 Hamiltonian term: 2.789
Parameter # 24 Overlap term: -1.305
Parameter # 25 Hamiltonian term: 2.741
Parameter # 25 Overlap term: -1.34
Parameter # 26 Hamiltonian term: 3.014
Parameter # 26 Overlap term: -1.423
Parameter # 27 Hamiltonian term: 3.267
Parameter # 27 Overlap term: -1.587
Parameter # 28 Hamiltonian term: 3.175
Parameter # 28 Overlap term: -1.569
Parameter # 29 Hamiltonian term: 2.566
Parameter # 29 Overlap term: -1.252
Parameter # 30 Hamiltonian term: 1.788
Parameter # 30 Overlap term: -0.8626
Number of Parameters: 31
Parameter Type step sizes:  TJF_2Body_eta=0.01 TJF_1Body_eta=0.01 F_eta=0.001 CI_eta=0.2 Orb_eta=0.001
Using RMSprop
  Execution time = 0.2078
  </log>
  <optVariables href="descent_ref.s005.opt.xml">
CSFcoeff_1 -4.053622e-01                3 1 ON  0
uu_0       5.699485e-01                 1 1 ON  1
uu_1       3.708488e-01                 1 1 ON  2
uu_2       2.119774e-01                 1 1 ON  3
uu_3       9.524995e-02                 1 1 ON  4
uu_4       9.493680e-03                 1 1 ON  5
uu_5       -2.938707e-02                1 1 ON  6
uu_6       -3.212710e-02                1 1 ON  7
uu_7       3.988930e-03                 1 1 ON  8
uu_8       3.477302e-02                 1 1 ON  9
uu_9       2.883640e-02                 1 1 ON  10
ud_0       9.160107e-01                 1 1 ON  11
ud_1       5.795549e-01                 1 1 ON  12
ud_2       3.486124e-01                 1 1 ON  13
ud_3       1.914914e-01                 1 1 ON  14
ud_4       8.840565e-02                 1 1 ON  15
ud_5       2.757279e-02                 1 1 ON  16
ud_6       3.527326e-02                 1 1 ON  17
ud_7       6.214568e-02                 1 1 ON  18
ud_8       7.431180e-02                 1 1 ON  19
ud_9       5.547931e-02                 1 1 ON  20
eH_0       1.311062e-02                 1 1 ON  21
eH_1       3.017509e-02                 1 1 ON  22
eH_2       -1.095845e-01                1 1 ON  23
eH_3       -9.576902e-02                1 1 ON  24
eH_4       -1.098587e-01                1 1 ON  25
eH_5       -8.099224e-02                1 1 ON  26
eH_6       -3.303111e-02                1 1 ON  27
eH_7       -6.608017e-03                1 1 ON  28
eH_8       1.284321e-02                 1 1 ON  29
eH_9       6.345487e-03                 1 1 ON  30
  </optVariables>
   Restore the number of walkers to 1, removing 0 walkers.
</opt>
</optimization-report>
  QMC Execution time = 0.2086 secs

=========================================================
  Start QMCFixedSampleLinearOptimize
  File Root descent_ref.s006 append = no 
=========================================================
  Skip QMCDriver::putQMCInfo 
  Resetting Properties of the walkers 1 x 13

=========================================================
  Start VMC
  File Root descent_ref.s006 append = no 
=========================================================
Using existing walkers 
  Resetting Properties of the walkers 1 x 13

<vmc function="put">
  qmc_counter=6  my_counter=6
  time step      = 0.05
  blocks         = 2000
  steps          = 3
  substeps       = 1
  current        = 0
  target samples = 2e+04
  walkers/mpi    = 1

  stepsbetweensamples = 1
<parameter name="blm_length" condition="int">0</parameter>
<parameter name="blocks" condition="int">2000</parameter>
<parameter name="blocks_between_recompute" condition="int">0</parameter>
<parameter name="check_properties" condition="int">100</parameter>
<parameter name="checkproperties" condition="int">100</parameter>
<parameter name="current" condition="int">0</parameter>
<parameter name="descent_length" condition="int">0</parameter>
<parameter name="dmcwalkersperthread" condition="real">5000</parameter>
<parameter name="hybrid_descent_samples" condition="real">0</parameter>
<parameter name="maxcpusecs" condition="real">3.6e+05</parameter>
<parameter name="minmethod" condition="string">descent</parameter>
<parameter name="record_configs" condition="int">0</parameter>
<parameter name="record_walkers" condition="int">1</parameter>
<parameter name="recordconfigs" condition="int">0</parameter>
<parameter name="recordwalkers" condition="int">1</parameter>
<parameter name="rewind" condition="int">0</parameter>
<parameter name="samples" condition="real">2e+04</parameter>
<parameter name="samplesperthread" condition="real">5000</parameter>
<parameter name="steps" condition="int">3</parameter>
<parameter name="stepsbetweensamples" condition="int">1</parameter>
<parameter name="store_configs" condition="int">0</parameter>
<parameter name="storeconfigs" condition="int">0</parameter>
<parameter name="sub_steps" condition="int">1</parameter>
<parameter name="substeps" condition="int">1</parameter>
<parameter name="tau" condition="au">0.05</parameter>
<parameter name="time_step" condition="au">0.05</parameter>
<parameter name="timestep" condition="au">0.05</parameter>
<parameter name="use_drift" condition="string">no</parameter>
<parameter name="usedrift" condition="string">no</parameter>
<parameter name="walkers" condition="int">1</parameter>
<parameter name="warmup_steps" condition="int">1000</parameter>
<parameter name="warmupsteps" condition="int">1000</parameter>
  DumpConfig==false Nothing (configurations, state) will be saved.
  Walker Samples are dumped every 1 steps.
</vmc>
  Set drift_modifier UNR parameter a = 1
  EstimatorManagerBase::add replace LocalEnergy estimator.
  Set drift_modifier UNR parameter a = 1
  EstimatorManagerBase::add replace LocalEnergy estimator.
<optimization-report>
<vmc stage="main" blocks="2000">
  Cannot make clones again. Use existing 1 clones
  Initial partition of walkers 0 1 
  Using Particle by Particle moves
  Walker moves without drift
  Total Sample Size   =20000
  Walker distribution on root = 0 1 
===== Memory Usage after the buffer registration =====
Available memory on node 0, free + buffers : 13485 MB
Memory footprint by rank 0 on node 0       : 36 MB
==================================================
====================================================
  SimpleFixedNodeBranch::finalize after a VMC block
    QMC counter        = 6
    time step          = 0.05
    reference energy   = -1.90062
    reference variance = 0.0319076
====================================================
  Execution time = 0.09916
</vmc>
<opt stage="setup">
  <log>
   Reading configurations from h5FileRoot descent_ref.s006
  Using Nonlocal PP in Opt: no
   Number of samples loaded to each thread : 5000 
  VMC Eavg = -2.084
  VMC Evar = 0.1603
  Total weights = 2e+04
  Execution time = 0.05125
  </log>
</opt>
<opt stage="main" walkers="20000">
  <log>
Iteration: 1/1
  VMC Eavg = -2.084
  VMC Evar = 0.1603
  Total weights = 2e+04
This is e_avg: -2.084
This is total weights: 2e+04
Parameter # 0 Hamiltonian term: 1.45
Parameter # 0 Overlap term: -0.7752
Parameter # 1 Hamiltonian term: 0.0007602
Parameter # 1 Overlap term: -0.000717
Parameter # 2 Hamiltonian term: 0.02558
Parameter # 2 Overlap term: -0.01425
Parameter # 3 Hamiltonian term: 0.1771
Parameter # 3 Overlap term: -0.08545
Parameter # 4 Hamiltonian term: 0.515
Parameter # 4 Overlap term: -0.2353
Parameter # 5 Hamiltonian term: 0.779
Parameter # 5 Overlap term: -0.3756
Parameter # 6 Hamiltonian term: 0.8053
Parameter # 6 Overlap term: -0.4155
Parameter # 7 Hamiltonian term: 0.7604
Parameter # 7 Overlap term: -0.3789
Parameter # 8 Hamiltonian term: 0.6166
Parameter # 8 Overlap term: -0.2743
Parameter # 9 Hamiltonian term: 0.3277
Parameter # 9 Overlap term: -0.1434
Parameter # 10 Hamiltonian term: 0.1203
Parameter # 10 Overlap term: -0.05582
Parameter # 11 Hamiltonian term: 0.0528
Parameter # 11 Overlap term: -0.02865
Parameter # 12 Hamiltonian term: 0.4377
Parameter # 12 Overlap term: -0.2121
Parameter # 13 Hamiltonian term: 1.224
Parameter # 13 Overlap term: -0.5528
Parameter # 14 Hamiltonian term: 1.679
Parameter # 14 Overlap term: -0.8213
Parameter # 15 Hamiltonian term: 1.549
Parameter # 15 Overlap term: -0.788
Parameter # 16 Hamiltonian term: 1.159
Parameter # 16 Overlap term: -0.5502
Parameter # 17 Hamiltonian term: 0.8804
Parameter # 17 Overlap term: -0.4079
Parameter # 18 Hamiltonian term: 0.7208
Parameter # 18 Overlap term: -0.3304
Parameter # 19 Hamiltonian term: 0.4007
Parameter # 19 Overlap term: -0.2005
Parameter # 20 Hamiltonian term: 0.1693
Parameter # 20 Overlap term: -0.07776
Parameter # 21 Hamiltonian term: 0.2934
Parameter # 21 Overlap term: -0.1423
Parameter # 22 Hamiltonian term: 1.408
Parameter # 22 Overlap term: -0.6895
Parameter # 23 Hamiltonian term: 2.47
Parameter # 23 Overlap term: -1.172
Parameter # 24 Hamiltonian term: 2.812
Parameter # 24 Overlap term: -1.325
Parameter # 25 Hamiltonian term: 2.778
Parameter # 25 Overlap term: -1.379
Parameter # 26 Hamiltonian term: 3.002
Parameter # 26 Overlap term: -1.442
Parameter # 27 Hamiltonian term: 3.425
Parameter # 27 Overlap term: -1.563
Parameter # 28 Hamiltonian term: 3.062
Parameter # 28 Overlap term: -1.566
Parameter # 29 Hamiltonian term: 2.594
Parameter # 29 Overlap term: -1.259
Parameter # 30 Hamiltonian term: 1.817
Parameter # 30 Overlap term: -0.8668
Number of Parameters: 31
Parameter Type step sizes:  TJF_2Body_eta=0.01 TJF_1Body_eta=0.01 F_eta=0.001 CI_eta=0.2 Orb_eta=0.001
Using RMSprop
  Execution time = 0.2037
  </log>
  <optVariables href="descent_ref.s006.opt.xml">
CSFcoeff_1 -3.773509e-01                3 1 ON  0
uu_0       5.718358e-01                 1 1 ON  1
uu_1       3.711982e-01                 1 1 ON  2
uu_2       2.120172e-01                 1 1 ON  3
uu_3       9.372895e-02                 1 1 ON  4
uu_4       9.498322e-03                 1 1 ON  5
uu_5       -2.666835e-02                1 1 ON  6
uu_6       -2.930382e-02                1 1 ON  7
uu_7       1.380457e-03                 1 1 ON  8
uu_8       3.252330e-02                 1 1 ON  9
uu_9       2.781254e-02                 1 1 ON  10
ud_0       9.173744e-01                 1 1 ON  11
ud_1       5.801857e-01                 1 1 ON  12
ud_2       3.451268e-01                 1 1 ON  13
ud_3       1.931435e-01                 1 1 ON  14
ud_4       9.278555e-02                 1 1 ON  15
ud_5       2.754027e-02                 1 1 ON  16
ud_6       3.261217e-02                 1 1 ON  17
ud_7       5.851184e-02                 1 1 ON  18
ud_8       7.623209e-02                 1 1 ON  19
ud_9       5.286261e-02                 1 1 ON  20
eH_0       1.413664e-02                 1 1 ON  21
eH_1       3.031743e-02                 1 1 ON  22
eH_2       -1.106503e-01                1 1 ON  23
eH_3       -9.646850e-02                1 1 ON  24
eH_4       -1.070619e-01                1 1 ON  25
eH_5       -7.992514e-02                1 1 ON  26
eH_6       -3.697129e-02                1 1 ON  27
eH_7       -4.667201e-03                1 1 ON  28
eH_8       1.400995e-02                 1 1 ON  29
eH_9       6.119315e-03                 1 1 ON  30
  </optVariables>
   Restore the number of walkers to 1, removing 0 walkers.
</opt>
</optimization-report>
  QMC Execution time = 0.2045 secs

=========================================================
  Start QMCFixedSampleLinearOptimize
  File Root descent_ref.s007 append = no 
=========================================================
  Skip QMCDriver::putQMCInfo 
  Resetting Properties of the walkers 1 x 13

=========================================================
  Start VMC
  File Root descent_ref.s007 append = no 
=========================================================
Using existing walkers 
  Resetting Properties of the walkers 1 x 13

<vmc function="put">
  qmc_counter=7  my_counter=7
  time step      = 0.05
  blocks         = 2000
  steps          = 3
  substeps       = 1
  current        = 0
  target samples = 2e+04
  walkers/mpi    = 1

  stepsbetweensamples = 1
<parameter name="blm_length" condition="int">0</parameter>
<parameter name="blocks" condition="int">2000</parameter>
<parameter name="blocks_between_recompute" condition="int">0</parameter>
<parameter name="check_properties" condition="int">100</parameter>
<parameter name="checkproperties" condition="int">100</parameter>
<parameter name="current" condition="int">0</parameter>
<parameter name="descent_length" condition="int">0</parameter>
<parameter name="dmcwalkersperthread" condition="real">5000</parameter>
<parameter name="hybrid_descent_samples" condition="real">0</parameter>
<parameter name="maxcpusecs" condition="real">3.6e+05</parameter>
<parameter name="minmethod" condition="string">descent</parameter>
<parameter name="record_configs" condition="int">0</parameter>
<parameter name="record_walkers" condition="int">1</parameter>
<parameter name="recordconfigs" condition="int">0</parameter>
<parameter name="recordwalkers" condition="int">1</parameter>
<parameter name="rewind" condition="int">0</parameter>
<parameter name="samples" condition="real">2e+04</parameter>
<parameter name="samplesperthread" condition="real">5000</parameter>
<parameter name="steps" condition="int">3</parameter>
<parameter name="stepsbetweensamples" condition="int">1</parameter>
<parameter name="store_configs" condition="int">0</parameter>
<parameter name="storeconfigs" condition="int">0</parameter>
<parameter name="sub_steps" condition="int">1</parameter>
<parameter name="substeps" condition="int">1</parameter>
<parameter name="tau" condition="au">0.05</parameter>
<parameter name="time_step" condition="au">0.05</parameter>
<parameter name="timestep" condition="au">0.05</parameter>
<parameter name="use_drift" condition="string">no</parameter>
<parameter name="usedrift" condition="string">no</parameter>
<parameter name="walkers" condition="int">1</parameter>
<parameter name="warmup_steps" condition="int">1000</parameter>
<parameter name="warmupsteps" condition="int">1000</parameter>
  DumpConfig==false Nothing (configurations, state) will be saved.
  Walker Samples are dumped every 1 steps.
</vmc>
  Set drift_modifier UNR parameter a = 1
  EstimatorManagerBase::add replace LocalEnergy estimator.
  Set drift_modifier UNR parameter a = 1
  EstimatorManagerBase::add replace LocalEnergy estimator.
<optimization-report>
<vmc stage="main" blocks="2000">
  Cannot make clones again. Use existing 1 clones
  Initial partition of walkers 0 1 
  Using Particle by Particle moves
  Walker moves without drift
  Total Sample Size   =20000
  Walker distribution on root = 0 1 
===== Memory Usage after the buffer registration =====
Available memory on node 0, free + buffers : 13485 MB
Memory footprint by rank 0 on node 0       : 36 MB
==================================================
====================================================
  SimpleFixedNodeBranch::finalize after a VMC block
    QMC counter        = 7
    time step          = 0.05
    reference energy   = -7.76928
    reference variance = 93.4029
====================================================
  Execution time = 0.1042
</vmc>
<opt stage="setup">
  <log>
   Reading configurations from h5FileRoot descent_ref.s007
  Using Nonlocal PP in Opt: no
   Number of samples loaded to each thread : 5000 
  VMC Eavg = -2.086
  VMC Evar = 0.1608
  Total weights = 2e+04
  Execution time = 0.05133
  </log>
</opt>
<opt stage="main" walkers="20000">
  <log>
Iteration: 1/1
  VMC Eavg = -2.086
  VMC Evar = 0.1608
  Total weights = 2e+04
This is e_avg: -2.086
This is total weights: 2e+04
Parameter # 0 Hamiltonian term: 1.408
Parameter # 0 Overlap term: -0.7434
Parameter # 1 Hamiltonian term: 0.0006869
Parameter # 1 Overlap term: -0.000903
Parameter # 2 Hamiltonian term: 0.03166
Parameter # 2 Overlap term: -0.0179
Parameter # 3 Hamiltonian term: 0.2063
Parameter # 3 Overlap term: -0.1033
Parameter # 4 Hamiltonian term: 0.5524
Parameter # 4 Overlap term: -0.2659
Parameter # 5 Hamiltonian term: 0.7915
Parameter # 5 Overlap term: -0.3836
Parameter # 6 Hamiltonian term: 0.8019
Parameter # 6 Overlap term: -0.3929
Parameter # 7 Hamiltonian term: 0.7472
Parameter # 7 Overlap term: -0.3546
Parameter # 8 Hamiltonian term: 0.5762
Parameter # 8 Overlap term: -0.2634
Parameter # 9 Hamiltonian term: 0.2991
Parameter # 9 Overlap term: -0.1416
Parameter # 10 Hamiltonian term: 0.1186
Parameter # 10 Overlap term: -0.05376
Parameter # 11 Hamiltonian term: 0.0645
Parameter # 11 Overlap term: -0.03036
Parameter # 12 Hamiltonian term: 0.4706
Parameter # 12 Overlap term: -0.2243
Parameter # 13 Hamiltonian term: 1.144
Parameter # 13 Overlap term: -0.5601
Parameter # 14 Hamiltonian term: 1.651
Parameter # 14 Overlap term: -0.7658
Parameter # 15 Hamiltonian term: 1.478
Parameter # 15 Overlap term: -0.7228
Parameter # 16 Hamiltonian term: 1.109
Parameter # 16 Overlap term: -0.5338
Parameter # 17 Hamiltonian term: 0.9296
Parameter # 17 Overlap term: -0.4307
Parameter # 18 Hamiltonian term: 0.7376
Parameter # 18 Overlap term: -0.3629
Parameter # 19 Hamiltonian term: 0.4748
Parameter # 19 Overlap term: -0.2246
Parameter # 20 Hamiltonian term: 0.1847
Parameter # 20 Overlap term: -0.1009
Parameter # 21 Hamiltonian term: 0.3034
Parameter # 21 Overlap term: -0.1339
Parameter # 22 Hamiltonian term: 1.303
Parameter # 22 Overlap term: -0.6613
Parameter # 23 Hamiltonian term: 2.425
Parameter # 23 Overlap term: -1.142
Parameter # 24 Hamiltonian term: 2.782
Parameter # 24 Overlap term: -1.307
Parameter # 25 Hamiltonian term: 2.811
Parameter # 25 Overlap term: -1.362
Parameter # 26 Hamiltonian term: 3.037
Parameter # 26 Overlap term: -1.445
Parameter # 27 Hamiltonian term: 3.265
Parameter # 27 Overlap term: -1.585
Parameter # 28 Hamiltonian term: 3.252
Parameter # 28 Overlap term: -1.547
Parameter # 29 Hamiltonian term: 2.458
Parameter # 29 Overlap term: -1.245
Parameter # 30 Hamiltonian term: 1.874
Parameter # 30 Overlap term: -0.8565
Number of Parameters: 31
Parameter Type step sizes:  TJF_2Body_eta=0.01 TJF_1Body_eta=0.01 F_eta=0.001 CI_eta=0.2 Orb_eta=0.001
Using RMSprop
  Execution time = 0.2087
  </log>
  <optVariables href="descent_ref.s007.opt.xml">
CSFcoeff_1 -3.522839e-01                3 1 ON  0
uu_0       5.743961e-01                 1 1 ON  1
uu_1       3.724440e-01                 1 1 ON  2
uu_2       2.132978e-01                 1 1 ON  3
uu_3       9.431792e-02                 1 1 ON  4
uu_4       1.019429e-02                 1 1 ON  5
uu_5       -2.646396e-02                1 1 ON  6
uu_6       -3.064527e-02                1 1 ON  7
uu_7       2.454396e-04                 1 1 ON  8
uu_8       3.283676e-02                 1 1 ON  9
uu_9       2.680350e-02                 1 1 ON  10
ud_0       9.167656e-01                 1 1 ON  11
ud_1       5.797830e-01                 1 1 ON  12
ud_2       3.471294e-01                 1 1 ON  13
ud_3       1.896899e-01                 1 1 ON  14
ud_4       9.317408e-02                 1 1 ON  15
ud_5       2.823259e-02                 1 1 ON  16
ud_6       3.105414e-02                 1 1 ON  17
ud_7       6.181711e-02                 1 1 ON  18
ud_8       7.526335e-02                 1 1 ON  19
ud_9       5.915217e-02                 1 1 ON  20
eH_0       1.220736e-02                 1 1 ON  21
eH_1       3.142675e-02                 1 1 ON  22
eH_2       -1.115768e-01                1 1 ON  23
eH_3       -9.757583e-02                1 1 ON  24
eH_4       -1.068011e-01                1 1 ON  25
eH_5       -8.125766e-02                1 1 ON  26
eH_6       -3.490249e-02                1 1 ON  27
eH_7       -5.504157e-03                1 1 ON  28
eH_8       1.861590e-02                 1 1 ON  29
eH_9       3.931345e-03                 1 1 ON  30
  </optVariables>
   Restore the number of walkers to 1, removing 0 walkers.
</opt>
</optimization-report>
  QMC Execution time = 0.2096 secs

=========================================================
  Start QMCFixedSampleLinearOptimize
  File Root descent_ref.s008 append = no 
=========================================================
  Skip QMCDriver::putQMCInfo 
  Resetting Properties of the walkers 1 x 13

=========================================================
  Start VMC
  File Root descent_ref.s008 append = no 
=========================================================
Using existing walkers 
  Resetting Properties of the walkers 1 x 13

<vmc function="put">
  qmc_counter=8  my_counter=8
  time step      = 0.05
  blocks         = 2000
  steps          = 3
  substeps       = 1
  current        = 0
  target samples = 2e+04
  walkers/mpi    = 1

  stepsbetweensamples = 1
<parameter name="blm_length" condition="int">0</parameter>
<parameter name="blocks" condition="int">2000</parameter>
<parameter name="blocks_between_recompute" condition="int">0</parameter>
<parameter name="check_properties" condition="int">100</parameter>
<parameter name="checkproperties" condition="int">100</parameter>
<parameter name="current" condition="int">0</parameter>
<parameter name="descent_length" condition="int">0</parameter>
<parameter name="dmcwalkersperthread" condition="real">5000</parameter>
<parameter name="hybrid_descent_samples" condition="real">0</parameter>
<parameter name="maxcpusecs" condition="real">3.6e+05</parameter>
<parameter name="minmethod" condition="string">descent</parameter>
<parameter name="record_configs" condition="int">0</parameter>
<parameter name="record_walkers" condition="int">1</parameter>
<parameter name="recordconfigs" condition="int">0</parameter>
<parameter name="recordwalkers" condition="int">1</parameter>
<parameter name="rewind" condition="int">0</parameter>
<parameter name="samples" condition="real">2e+04</parameter>
<parameter name="samplesperthread" condition="real">5000</parameter>
<parameter name="steps" condition="int">3</parameter>
<parameter name="stepsbetweensamples" condition="int">1</parameter>
<parameter name="store_configs" condition="int">0</parameter>
<parameter name="storeconfigs" condition="int">0</parameter>
<parameter name="sub_steps" condition="int">1</parameter>
<parameter name="substeps" condition="int">1</parameter>
<parameter name="tau" condition="au">0.05</parameter>
<parameter name="time_step" condition="au">0.05</parameter>
[...]
<parameter name="check_properties" condition="int">100</parameter>
<parameter name="checkproperties" condition="int">100</parameter>
<parameter name="current" condition="int">0</parameter>
<parameter name="descent_length" condition="int">0</parameter>
<parameter name="dmcwalkersperthread" condition="real">5000</parameter>
<parameter name="hybrid_descent_samples" condition="real">0</parameter>
<parameter name="maxcpusecs" condition="real">3.6e+05</parameter>
<parameter name="minmethod" condition="string">descent</parameter>
<parameter name="record_configs" condition="int">0</parameter>
<parameter name="record_walkers" condition="int">1</parameter>
<parameter name="recordconfigs" condition="int">0</parameter>
<parameter name="recordwalkers" condition="int">1</parameter>
<parameter name="rewind" condition="int">0</parameter>
<parameter name="samples" condition="real">2e+04</parameter>
<parameter name="samplesperthread" condition="real">5000</parameter>
<parameter name="steps" condition="int">3</parameter>
<parameter name="stepsbetweensamples" condition="int">1</parameter>
<parameter name="store_configs" condition="int">0</parameter>
<parameter name="storeconfigs" condition="int">0</parameter>
<parameter name="sub_steps" condition="int">1</parameter>
<parameter name="substeps" condition="int">1</parameter>
<parameter name="tau" condition="au">0.05</parameter>
<parameter name="time_step" condition="au">0.05</parameter>
<parameter name="timestep" condition="au">0.05</parameter>
<parameter name="use_drift" condition="string">no</parameter>
<parameter name="usedrift" condition="string">no</parameter>
<parameter name="walkers" condition="int">1</parameter>
<parameter name="warmup_steps" condition="int">1000</parameter>
<parameter name="warmupsteps" condition="int">1000</parameter>
  DumpConfig==false Nothing (configurations, state) will be saved.
  Walker Samples are dumped every 1 steps.
</vmc>
  Set drift_modifier UNR parameter a = 1
  EstimatorManagerBase::add replace LocalEnergy estimator.
  Set drift_modifier UNR parameter a = 1
  EstimatorManagerBase::add replace LocalEnergy estimator.
<optimization-report>
<vmc stage="main" blocks="2000">
  Cannot make clones again. Use existing 1 clones
  Initial partition of walkers 0 1 
  Using Particle by Particle moves
  Walker moves without drift
  Total Sample Size   =20000
  Walker distribution on root = 0 1 
===== Memory Usage after the buffer registration =====
Available memory on node 0, free + buffers : 13484 MB
Memory footprint by rank 0 on node 0       : 36 MB
==================================================
====================================================
  SimpleFixedNodeBranch::finalize after a VMC block
    QMC counter        = 48
    time step          = 0.05
    reference energy   = -2.00842
    reference variance = 0.264658
====================================================
  Execution time = 0.09932
</vmc>
<opt stage="setup">
  <log>
   Reading configurations from h5FileRoot descent_ref.s048
  Using Nonlocal PP in Opt: no
   Number of samples loaded to each thread : 5000 
  VMC Eavg = -2.123
  VMC Evar = 0.1631
  Total weights = 2e+04
  Execution time = 0.05148
  </log>
</opt>
<opt stage="main" walkers="20000">
  <log>
Iteration: 1/1
  VMC Eavg = -2.123
  VMC Evar = 0.1631
  Total weights = 2e+04
This is e_avg: -2.123
This is total weights: 2e+04
Parameter # 0 Hamiltonian term: 0.9907
Parameter # 0 Overlap term: -0.4957
Parameter # 1 Hamiltonian term: 0.002146
Parameter # 1 Overlap term: -0.0005449
Parameter # 2 Hamiltonian term: 0.02132
Parameter # 2 Overlap term: -0.01345
Parameter # 3 Hamiltonian term: 0.1746
Parameter # 3 Overlap term: -0.08023
Parameter # 4 Hamiltonian term: 0.4721
Parameter # 4 Overlap term: -0.2238
Parameter # 5 Hamiltonian term: 0.7133
Parameter # 5 Overlap term: -0.3533
Parameter # 6 Hamiltonian term: 0.8477
Parameter # 6 Overlap term: -0.386
Parameter # 7 Hamiltonian term: 0.8369
Parameter # 7 Overlap term: -0.3818
Parameter # 8 Hamiltonian term: 0.6375
Parameter # 8 Overlap term: -0.3127
Parameter # 9 Hamiltonian term: 0.3721
Parameter # 9 Overlap term: -0.1698
Parameter # 10 Hamiltonian term: 0.125
Parameter # 10 Overlap term: -0.0617
Parameter # 11 Hamiltonian term: 0.05745
Parameter # 11 Overlap term: -0.03352
Parameter # 12 Hamiltonian term: 0.5119
Parameter # 12 Overlap term: -0.2366
Parameter # 13 Hamiltonian term: 1.291
Parameter # 13 Overlap term: -0.5758
Parameter # 14 Hamiltonian term: 1.671
Parameter # 14 Overlap term: -0.7931
Parameter # 15 Hamiltonian term: 1.518
Parameter # 15 Overlap term: -0.7391
Parameter # 16 Hamiltonian term: 1.17
Parameter # 16 Overlap term: -0.5629
Parameter # 17 Hamiltonian term: 0.9542
Parameter # 17 Overlap term: -0.4525
Parameter # 18 Hamiltonian term: 0.7099
Parameter # 18 Overlap term: -0.3339
Parameter # 19 Hamiltonian term: 0.408
Parameter # 19 Overlap term: -0.1767
Parameter # 20 Hamiltonian term: 0.1486
Parameter # 20 Overlap term: -0.0705
Parameter # 21 Hamiltonian term: 0.2683
Parameter # 21 Overlap term: -0.1406
Parameter # 22 Hamiltonian term: 1.376
Parameter # 22 Overlap term: -0.6814
Parameter # 23 Hamiltonian term: 2.533
Parameter # 23 Overlap term: -1.168
Parameter # 24 Hamiltonian term: 2.864
Parameter # 24 Overlap term: -1.336
Parameter # 25 Hamiltonian term: 3.005
Parameter # 25 Overlap term: -1.383
Parameter # 26 Hamiltonian term: 2.981
Parameter # 26 Overlap term: -1.457
Parameter # 27 Hamiltonian term: 3.33
Parameter # 27 Overlap term: -1.536
Parameter # 28 Hamiltonian term: 3.108
Parameter # 28 Overlap term: -1.479
Parameter # 29 Hamiltonian term: 2.546
Parameter # 29 Overlap term: -1.194
Parameter # 30 Hamiltonian term: 1.814
Parameter # 30 Overlap term: -0.862
Number of Parameters: 31
Parameter Type step sizes:  TJF_2Body_eta=0.01 TJF_1Body_eta=0.01 F_eta=0.001 CI_eta=0.2 Orb_eta=0.001
Using RMSprop
  Execution time = 0.2039
  </log>
  <optVariables href="descent_ref.s048.opt.xml">
CSFcoeff_1 -1.223479e-01                3 1 ON  0
uu_0       5.545512e-01                 1 1 ON  1
uu_1       3.735905e-01                 1 1 ON  2
uu_2       2.231664e-01                 1 1 ON  3
uu_3       1.117129e-01                 1 1 ON  4
uu_4       1.074138e-02                 1 1 ON  5
uu_5       -4.341390e-02                1 1 ON  6
uu_6       -3.375865e-02                1 1 ON  7
uu_7       9.678065e-04                 1 1 ON  8
uu_8       2.566493e-02                 1 1 ON  9
uu_9       3.831020e-02                 1 1 ON  10
ud_0       9.391385e-01                 1 1 ON  11
ud_1       5.772726e-01                 1 1 ON  12
ud_2       3.400088e-01                 1 1 ON  13
ud_3       1.989962e-01                 1 1 ON  14
ud_4       8.016146e-02                 1 1 ON  15
ud_5       2.589836e-02                 1 1 ON  16
ud_6       3.510475e-02                 1 1 ON  17
ud_7       6.456453e-02                 1 1 ON  18
ud_8       7.771722e-02                 1 1 ON  19
ud_9       6.245391e-02                 1 1 ON  20
eH_0       2.534901e-02                 1 1 ON  21
eH_1       3.800678e-02                 1 1 ON  22
eH_2       -1.206491e-01                1 1 ON  23
eH_3       -9.589342e-02                1 1 ON  24
eH_4       -1.075234e-01                1 1 ON  25
eH_5       -8.586853e-02                1 1 ON  26
eH_6       -2.886697e-02                1 1 ON  27
eH_7       -2.683764e-03                1 1 ON  28
eH_8       8.198696e-03                 1 1 ON  29
eH_9       1.932030e-02                 1 1 ON  30
  </optVariables>
   Restore the number of walkers to 1, removing 0 walkers.
</opt>
</optimization-report>
  QMC Execution time = 0.2047 secs

=========================================================
  Start QMCFixedSampleLinearOptimize
  File Root descent_ref.s049 append = no 
=========================================================
  Skip QMCDriver::putQMCInfo 
  Resetting Properties of the walkers 1 x 13

=========================================================
  Start VMC
  File Root descent_ref.s049 append = no 
=========================================================
Using existing walkers 
  Resetting Properties of the walkers 1 x 13

<vmc function="put">
  qmc_counter=49  my_counter=49
  time step      = 0.05
  blocks         = 2000
  steps          = 3
  substeps       = 1
  current        = 0
  target samples = 2e+04
  walkers/mpi    = 1

  stepsbetweensamples = 1
<parameter name="blm_length" condition="int">0</parameter>
<parameter name="blocks" condition="int">2000</parameter>
<parameter name="blocks_between_recompute" condition="int">0</parameter>
<parameter name="check_properties" condition="int">100</parameter>
<parameter name="checkproperties" condition="int">100</parameter>
<parameter name="current" condition="int">0</parameter>
<parameter name="descent_length" condition="int">0</parameter>
<parameter name="dmcwalkersperthread" condition="real">5000</parameter>
<parameter name="hybrid_descent_samples" condition="real">0</parameter>
<parameter name="maxcpusecs" condition="real">3.6e+05</parameter>
<parameter name="minmethod" condition="string">descent</parameter>
<parameter name="record_configs" condition="int">0</parameter>
<parameter name="record_walkers" condition="int">1</parameter>
<parameter name="recordconfigs" condition="int">0</parameter>
<parameter name="recordwalkers" condition="int">1</parameter>
<parameter name="rewind" condition="int">0</parameter>
<parameter name="samples" condition="real">2e+04</parameter>
<parameter name="samplesperthread" condition="real">5000</parameter>
<parameter name="steps" condition="int">3</parameter>
<parameter name="stepsbetweensamples" condition="int">1</parameter>
<parameter name="store_configs" condition="int">0</parameter>
<parameter name="storeconfigs" condition="int">0</parameter>
<parameter name="sub_steps" condition="int">1</parameter>
<parameter name="substeps" condition="int">1</parameter>
<parameter name="tau" condition="au">0.05</parameter>
<parameter name="time_step" condition="au">0.05</parameter>
<parameter name="timestep" condition="au">0.05</parameter>
<parameter name="use_drift" condition="string">no</parameter>
<parameter name="usedrift" condition="string">no</parameter>
<parameter name="walkers" condition="int">1</parameter>
<parameter name="warmup_steps" condition="int">1000</parameter>
<parameter name="warmupsteps" condition="int">1000</parameter>
  DumpConfig==false Nothing (configurations, state) will be saved.
  Walker Samples are dumped every 1 steps.
</vmc>
  Set drift_modifier UNR parameter a = 1
  EstimatorManagerBase::add replace LocalEnergy estimator.
  Set drift_modifier UNR parameter a = 1
  EstimatorManagerBase::add replace LocalEnergy estimator.
<optimization-report>
<vmc stage="main" blocks="2000">
  Cannot make clones again. Use existing 1 clones
  Initial partition of walkers 0 1 
  Using Particle by Particle moves
  Walker moves without drift
  Total Sample Size   =20000
  Walker distribution on root = 0 1 
===== Memory Usage after the buffer registration =====
Available memory on node 0, free + buffers : 13484 MB
Memory footprint by rank 0 on node 0       : 36 MB
==================================================
====================================================
  SimpleFixedNodeBranch::finalize after a VMC block
    QMC counter        = 49
    time step          = 0.05
    reference energy   = -2.22576
    reference variance = 0.0937867
====================================================
  Execution time = 0.0994
</vmc>
<opt stage="setup">
  <log>
   Reading configurations from h5FileRoot descent_ref.s049
  Using Nonlocal PP in Opt: no
   Number of samples loaded to each thread : 5000 
  VMC Eavg = -2.134
  VMC Evar = 0.1466
  Total weights = 2e+04
  Execution time = 0.05158
  </log>
</opt>
<opt stage="main" walkers="20000">
  <log>
Iteration: 1/1
  VMC Eavg = -2.134
  VMC Evar = 0.1466
  Total weights = 2e+04
This is e_avg: -2.134
This is total weights: 2e+04
Parameter # 0 Hamiltonian term: 0.8015
Parameter # 0 Overlap term: -0.3519
Parameter # 1 Hamiltonian term: 0.001455
Parameter # 1 Overlap term: -0.0004632
Parameter # 2 Hamiltonian term: 0.02626
Parameter # 2 Overlap term: -0.01168
Parameter # 3 Hamiltonian term: 0.1445
Parameter # 3 Overlap term: -0.07441
Parameter # 4 Hamiltonian term: 0.4327
Parameter # 4 Overlap term: -0.1999
Parameter # 5 Hamiltonian term: 0.6925
Parameter # 5 Overlap term: -0.3276
Parameter # 6 Hamiltonian term: 0.8589
Parameter # 6 Overlap term: -0.4005
Parameter # 7 Hamiltonian term: 0.863
Parameter # 7 Overlap term: -0.4146
Parameter # 8 Hamiltonian term: 0.6914
Parameter # 8 Overlap term: -0.3153
Parameter # 9 Hamiltonian term: 0.3738
Parameter # 9 Overlap term: -0.1693
Parameter # 10 Hamiltonian term: 0.1274
Parameter # 10 Overlap term: -0.0663
Parameter # 11 Hamiltonian term: 0.07645
Parameter # 11 Overlap term: -0.03323
Parameter # 12 Hamiltonian term: 0.5424
Parameter # 12 Overlap term: -0.2521
Parameter # 13 Hamiltonian term: 1.275
Parameter # 13 Overlap term: -0.6162
Parameter # 14 Hamiltonian term: 1.677
Parameter # 14 Overlap term: -0.7921
Parameter # 15 Hamiltonian term: 1.524
Parameter # 15 Overlap term: -0.7015
Parameter # 16 Hamiltonian term: 1.128
Parameter # 16 Overlap term: -0.5557
Parameter # 17 Hamiltonian term: 0.959
Parameter # 17 Overlap term: -0.4463
Parameter # 18 Hamiltonian term: 0.7406
Parameter # 18 Overlap term: -0.3189
Parameter # 19 Hamiltonian term: 0.3758
Parameter # 19 Overlap term: -0.1774
Parameter # 20 Hamiltonian term: 0.1679
Parameter # 20 Overlap term: -0.07063
Parameter # 21 Hamiltonian term: 0.2644
Parameter # 21 Overlap term: -0.126
Parameter # 22 Hamiltonian term: 1.363
Parameter # 22 Overlap term: -0.6246
Parameter # 23 Hamiltonian term: 2.55
Parameter # 23 Overlap term: -1.13
Parameter # 24 Hamiltonian term: 2.764
Parameter # 24 Overlap term: -1.369
Parameter # 25 Hamiltonian term: 3.01
Parameter # 25 Overlap term: -1.438
Parameter # 26 Hamiltonian term: 3.124
Parameter # 26 Overlap term: -1.49
Parameter # 27 Hamiltonian term: 3.231
Parameter # 27 Overlap term: -1.531
Parameter # 28 Hamiltonian term: 3.112
Parameter # 28 Overlap term: -1.402
Parameter # 29 Hamiltonian term: 2.525
Parameter # 29 Overlap term: -1.119
Parameter # 30 Hamiltonian term: 1.772
Parameter # 30 Overlap term: -0.8533
Number of Parameters: 31
Parameter Type step sizes:  TJF_2Body_eta=0.01 TJF_1Body_eta=0.01 F_eta=0.001 CI_eta=0.2 Orb_eta=0.001
Using RMSprop
  Execution time = 0.2044
  </log>
  <optVariables href="descent_ref.s049.opt.xml">
CSFcoeff_1 -1.555435e-01                3 1 ON  0
uu_0       5.540880e-01                 1 1 ON  1
uu_1       3.726003e-01                 1 1 ON  2
uu_2       2.256231e-01                 1 1 ON  3
uu_3       1.110215e-01                 1 1 ON  4
uu_4       1.073242e-02                 1 1 ON  5
uu_5       -4.332164e-02                1 1 ON  6
uu_6       -3.173796e-02                1 1 ON  7
uu_7       -7.073322e-04                1 1 ON  8
uu_8       2.446713e-02                 1 1 ON  9
uu_9       4.055765e-02                 1 1 ON  10
ud_0       9.377259e-01                 1 1 ON  11
ud_1       5.770141e-01                 1 1 ON  12
ud_2       3.427683e-01                 1 1 ON  13
ud_3       1.995927e-01                 1 1 ON  14
ud_4       7.825838e-02                 1 1 ON  15
ud_5       2.896657e-02                 1 1 ON  16
ud_6       3.451775e-02                 1 1 ON  17
ud_7       6.027388e-02                 1 1 ON  18
ud_8       7.852961e-02                 1 1 ON  19
ud_9       5.967548e-02                 1 1 ON  20
eH_0       2.529651e-02                 1 1 ON  21
eH_1       3.631504e-02                 1 1 ON  22
eH_2       -1.242495e-01                1 1 ON  23
eH_3       -9.154705e-02                1 1 ON  24
eH_4       -1.054946e-01                1 1 ON  25
eH_5       -8.494749e-02                1 1 ON  26
eH_6       -2.743364e-02                1 1 ON  27
eH_7       -5.706664e-03                1 1 ON  28
eH_8       4.414105e-03                 1 1 ON  29
eH_9       2.082854e-02                 1 1 ON  30
  </optVariables>
   Restore the number of walkers to 1, removing 0 walkers.
</opt>
</optimization-report>
  QMC Execution time = 0.2052 secs

=========================================================
  Start VMC
  File Root descent_ref.s050 append = no 
=========================================================
Resetting walkers
  Using the current 1 walkers.
  Total number of walkers: 4
  Total weight: 4
  Resetting Properties of the walkers 1 x 13

<vmc function="put">
  qmc_counter=0  my_counter=0
  time step      = 0.05
  blocks         = 200
  steps          = 50000
  substeps       = 1
  current        = 0
  target samples = 0
  walkers/mpi    = 1

  stepsbetweensamples = 10050000
<parameter name="blm_length" condition="int">21971</parameter>
<parameter name="blocks" condition="int">200</parameter>
<parameter name="blocks_between_recompute" condition="int">0</parameter>
<parameter name="check_properties" condition="int">100</parameter>
<parameter name="checkproperties" condition="int">100</parameter>
<parameter name="current" condition="int">0</parameter>
<parameter name="descent_length" condition="int">1258946608</parameter>
<parameter name="dmcwalkersperthread" condition="real">0</parameter>
<parameter name="hybrid_descent_samples" condition="real">4.662e-310</parameter>
<parameter name="maxcpusecs" condition="real">3.6e+05</parameter>
<parameter name="minmethod" condition="string"></parameter>
<parameter name="record_configs" condition="int">0</parameter>
<parameter name="record_walkers" condition="int">10050000</parameter>
<parameter name="recordconfigs" condition="int">0</parameter>
<parameter name="recordwalkers" condition="int">10050000</parameter>
<parameter name="rewind" condition="int">0</parameter>
<parameter name="samples" condition="real">0</parameter>
<parameter name="samplesperthread" condition="real">0</parameter>
<parameter name="steps" condition="int">50000</parameter>
<parameter name="stepsbetweensamples" condition="int">10050000</parameter>
<parameter name="store_configs" condition="int">0</parameter>
<parameter name="storeconfigs" condition="int">0</parameter>
<parameter name="sub_steps" condition="int">1</parameter>
<parameter name="substeps" condition="int">1</parameter>
<parameter name="tau" condition="au">0.05</parameter>
<parameter name="time_step" condition="au">0.05</parameter>
<parameter name="timestep" condition="au">0.05</parameter>
<parameter name="use_drift" condition="string">yes</parameter>
<parameter name="usedrift" condition="string">yes</parameter>
<parameter name="walkers" condition="int">1</parameter>
<parameter name="warmup_steps" condition="int">100</parameter>
<parameter name="warmupsteps" condition="int">100</parameter>
  DumpConfig==false Nothing (configurations, state) will be saved.
  Walker Samples are dumped every 10050000 steps.
</vmc>
  Set drift_modifier UNR parameter a = 1
  Cannot make clones again. Use existing 1 clones
  Initial partition of walkers 0 1 

  Using Particle by Particle moves
  Walker moves with drift
  Total Sample Size   =0
  Walker distribution on root = 0 1 
===== Memory Usage after the buffer registration =====
Available memory on node 0, free + buffers : 13491 MB
Memory footprint by rank 0 on node 0       : 36 MB
==================================================
  Anonymous Buffer size per walker : 1704 Bytes.
MEMORY increase 0 MB VMC::resetRun
====================================================
  SimpleFixedNodeBranch::finalize after a VMC block
    QMC counter        = 50
    time step          = 0.05
    reference energy   = -2.04356
    reference variance = 0.0710366
====================================================
  QMC Execution time = 117 secs
  Total Execution time = 127.4 secs

=========================================================
  A new xml input file : descent_ref.s050.cont.xml
