Discarded 6 diffused primitive functions, 0 contracted functions
#INFO: **** input file is /lus/theta-fs0/projects/PSFMat_2/hdshin/test/diamondC_2x1x1-Gaussian_pp/Carbon2x1x1-tw0.py ****
#! /usr/bin/env python3
import h5py
from pyscf.pbc import gto, scf, df
from numpy import array

cell = gto.Cell()
cell.a             = '''
         3.37316115       3.37316115       0.00000000
         0.00000000       3.37316115       3.37316115
         3.37316115       0.00000000       3.37316115'''
cell.atom = '''  
   C        0.00000000       0.00000000       0.00000000
   C        1.686580575      1.686580575      1.686580575 
            ''' 
cell.basis         = 'bfd-vdz'
cell.ecp           = 'bfd'
cell.unit          = 'B'
cell.drop_exponent = 0.1
cell.verbose       = 5
cell.charge        = 0
cell.spin          = 0
cell.build()


sp_twist=[0.0000000, 0.000000, -0000000]

kmesh=[2,1,1]
kpts=array([[ 0.0000000,  0.0000000, -0.0000000],[ 0.4928,  0.4928, -0.4928]])




mydf = df.GDF(cell,kpts)
mydf.auxbasis = 'weigend'
mydf._cderi_to_save = 'df_ints.h5'
mydf.build()                     
mf = scf.KROHF(cell,kpts).density_fit()
mf.exxdiv = 'ewald'
mf.max_cycle = 200
mf.with_df = mydf
mf.chkfile ='diamond-scf.chk'
mf.with_df._cderi = 'df_ints.h5'

e_scf=mf.kernel()

ener = open('e_scf','w')
ener.write('%s\n' % (e_scf))
print('e_scf',e_scf)
ener.close()

title="C_diamond-twist"
from PyscfToQmcpack import savetoqmcpack
savetoqmcpack(cell,mf,title=title,kmesh=kmesh,kpts=kpts,sp_twist=sp_twist)

from MolPyscfToQPkpts import pyscf2QP2
pyscf2QP2(cell,mf,kpts=kpts,kmesh=kmesh,int_threshold = 1E-15)
#INFO: ******************** input file end ********************


System: uname_result(system='Linux', node='cc001', release='3.10.0-1127.19.1.el7.x86_64', version='#1 SMP Tue Aug 11 19:12:04 EDT 2020', machine='x86_64', processor='x86_64')  Threads 12
Python 3.7.3 (default, Mar 27 2019, 22:11:17) 
[GCC 7.3.0]
numpy 1.16.4  scipy 1.3.0
Date: Thu Mar  4 04:28:01 2021
PySCF version 1.7.3
PySCF path  /home/hdshin/pyscf-1.7.3/pyscf

[CONFIG] conf_file None
[INPUT] verbose = 5
[INPUT] max_memory = 4000 
[INPUT] num. atoms = 2
[INPUT] num. electrons = 8
[INPUT] charge = 0
[INPUT] spin (= nelec alpha-beta = 2S) = 0
[INPUT] symmetry False subgroup None
[INPUT] Mole.unit = B
[INPUT]  1 C      0.000000000000   0.000000000000   0.000000000000 AA    0.000000000000   0.000000000000   0.000000000000 Bohr
[INPUT]  2 C      0.892500004670   0.892500004670   0.892500004670 AA    1.686580575000   1.686580575000   1.686580575000 Bohr
[INPUT] ---------------- BASIS SET ---------------- 
[INPUT] l, kappa, [nprim/nctr], expnt,             c_1 c_2 ...
[INPUT] C
[INPUT] 0    0    [8    /1   ]  13.073594         -0.000705
                                6.541187          0.015176
                                3.272791          -0.121499
                                1.637494          -0.033512
                                0.819297          0.180113
                                0.409924          0.380369
                                0.2051            0.397529
                                0.102619          0.169852
[INPUT] 0    0    [1    /1   ]  0.127852             1
[INPUT] 1    0    [7    /1   ]  7.480076          0.021931
                                3.741035          0.054425
                                1.871016          0.112024
                                0.935757          0.210979
                                0.468003          0.289868
                                0.234064          0.302667
                                0.117063          0.191634
[INPUT] 1    0    [1    /1   ]  0.149161             1
[INPUT] 2    0    [1    /1   ]  0.561161             1

Ewald components = 8.63915484117797e-26, -47.334679725158, 34.5590124922986
nuclear repulsion = -12.7756672328593
number of shells = 10
number of NR pGTOs = 76
number of NR cGTOs = 26
basis = bfd-vdz
ecp = bfd
CPU time:         0.71
lattice vectors  a1 [3.373161150, 3.373161150, 0.000000000]
                 a2 [0.000000000, 3.373161150, 3.373161150]
                 a3 [3.373161150, 0.000000000, 3.373161150]
dimension = 3
low_dim_ft_type = None
Cell volume = 76.7611
exp_to_discard = 0.1
rcut = 19.243077142883383 (nimgs = [5 5 5])
lattice sum = 911 cells
precision = 1e-08
pseudo = None
ke_cutoff = 357.28958447816603
    = [34 34 34] mesh (39304 PWs)
ew_eta = 2.61119
ew_cut = 2.673899610122948 (nimgs = [1 1 1])


******** <class 'pyscf.pbc.df.df.GDF'> ********
mesh = [7, 7, 7] (343 PWs)
auxbasis = weigend
eta = 0.2
exp_to_discard = 0.1
_cderi_to_save = df_ints.h5
len(kpts) = 2
num shells = 30, num cGTOs = 98
Drop 0 primitive fitting functions
make aux basis, num shells = 30, num cGTOs = 98
auxcell.rcut 12.824463399809424
Num uniq kpts 2


******** <class 'pyscf.pbc.scf.krohf.KROHF'> ********
method = KROHF-KRHF-KSCF-ROHF-RHF-SCF-ROHF-RHF
initial guess = minao
damping factor = 0
level_shift factor = 0
DIIS = <class 'pyscf.scf.diis.CDIIS'>
diis_start_cycle = 1
diis_space = 8
SCF conv_tol = 1e-07
SCF conv_tol_grad = None
SCF max_cycles = 200
direct_scf = False
chkfile to save SCF result = diamond-scf.chk
max_memory 4000 MB (current use 274 MB)


******** PBC SCF flags ********
N kpts = 2
kpts = [[ 0.      0.     -0.    ]
 [ 0.4928  0.4928 -0.4928]]
Exchange divergence treatment (exxdiv) = ewald
Ewald components = 1.16914688656015e-69, -1.47470687199088, 1.24004469635362
    madelung (= occupied orbital energy shift) = 0.46932435127452665
    Total energy shift due to Ewald probe charge = -1/2 * Nelec*madelung = -1.8772974051
DF object = <pyscf.pbc.df.df.GDF object at 0x7f3963e7cc88>
number of electrons per unit cell  alpha = 8 beta = 8
Set gradient conv threshold to 0.000316228
Big error detected in the electron number of initial guess density matrix (Ne/cell = 9.45244)!
  This can cause huge error in Fock matrix and lead to instability in SCF for low-dimensional systems.
  DM is normalized wrt the number of electrons 8
Ewald components = 1.16914688656015e-69, -1.47470687199088, 1.24004469635362
    CPU time for vj and vk      3.00 sec, wall time      0.44 sec
Ewald components = 8.63915484117797e-26, -47.334679725158, 34.5590124922986
E1 = (3.175856493850447+1.1810269027811439e-14j)  E_coul = (-4.934411695397662-9.837563161049826e-18j)
init E= -14.5342224344066
cond(S) = [ 62153.8020246  148758.70294946]
    CPU time for initialize scf    347.93 sec, wall time     31.94 sec
HOMO = 0.627620716866  LUMO = 0.835046163461
                  Roothaan           | alpha              | beta
  kpt  0 ( 0.000  0.000  0.000)
  Highest 2-occ =   0.62762071686568 |  0.627620716865679 |  0.627620716865679
  Lowest 0-occ =   0.835046163460989 |  0.835046163460946 |  0.835046163460946
  kpt  1 ( 0.529  0.000  0.000)
  Highest 2-occ =  0.489378808205246 |  0.489378808205247 |  0.489378808205247
  Lowest 0-occ =   0.955467099670779 |  0.955467099670773 |  0.955467099670773
     k-point                  Roothaan mo_energy
   0 ( 0.000  0.000  0.000)   [-1.85740458  0.58237139  0.62762072  0.62762072] [0.83504616 0.90016875 0.90016875 1.10132266 1.6288656  1.79846947
 1.79846947 2.16054811 2.17748099 2.17748099 2.63507391 2.6404094
 2.6404094  3.45750284 3.61885106 3.61885106 3.61986622 3.64911342
 3.64911342 4.71342341 4.71502727 4.71502727]
   1 ( 0.529  0.000  0.000)   [-0.89863043 -0.47199802  0.48937881  0.48937881] [ 0.9554671   1.03319218  1.03319218  1.34868418  1.62311893  1.74136628
  1.8308713   1.8308713   2.12304337  2.12304337  2.90583839  3.00864072
  3.00864072  3.13633287  3.13633287  3.19910733  3.7520891   3.7520891
  3.80104004  3.80104004  4.02083489 10.71713356]
Ewald components = 1.16914688656015e-69, -1.47470687199088, 1.24004469635362
    CPU time for vj and vk      0.71 sec, wall time      0.06 sec
Ewald components = 8.63915484117797e-26, -47.334679725158, 34.5590124922986
E1 = (4.380061140676527+1.0270077973814629e-14j)  E_coul = (-2.2014218695639145-3.2553060961627075e-14j)
cycle= 1 E= -10.5970279617467  delta_E= 3.94  |g|= 0.319  |ddm|= 3.93
    CPU time for cycle= 1      0.91 sec, wall time      0.08 sec
HOMO = 0.357025408076  LUMO = 1.01165781799
                  Roothaan           | alpha              | beta
  kpt  0 ( 0.000  0.000  0.000)
  Highest 2-occ =  0.357025408075562 |  0.357025408075562 |  0.357025408075562
  Lowest 0-occ =     1.0116578179863 |    1.0116578179863 |    1.0116578179863
  kpt  1 ( 0.529  0.000  0.000)
  Highest 2-occ =  0.166662885634153 |   0.16666288563415 |   0.16666288563415
  Lowest 0-occ =    1.13913508130548 |   1.13913508130549 |   1.13913508130549
     k-point                  Roothaan mo_energy
   0 ( 0.000  0.000  0.000)   [-0.65498469  0.28129856  0.28129856  0.35702541] [1.01165782 1.03350256 1.03350256 1.3418442  1.64282026 1.82228439
 1.82228439 2.22223951 2.23076181 2.23076181 2.71586375 2.71586375
 2.72202412 3.42557104 3.63411834 3.6401633  3.6401633  3.70374733
 3.70374733 4.76125307 4.76686206 4.76686206]
   1 ( 0.529  0.000  0.000)   [-0.38357719 -0.24791079  0.16666289  0.16666289] [ 1.13913508  1.16513479  1.16513479  1.39879266  1.70176853  1.80656777
  1.86736174  1.86736174  2.14223059  2.14223059  2.9663409   3.07187488
  3.07187488  3.1962742   3.1962742   3.21394526  3.79728199  3.79728199
  3.82445747  3.82445747  4.05221517 10.91788514]
Ewald components = 1.16914688656015e-69, -1.47470687199088, 1.24004469635362
    CPU time for vj and vk      0.72 sec, wall time      0.06 sec
Ewald components = 8.63915484117797e-26, -47.334679725158, 34.5590124922986
E1 = (4.405511925919875+1.4040906024664901e-14j)  E_coul = (-2.239895291073005-5.0485359165755583e-14j)
cycle= 2 E= -10.6100505980125  delta_E= -0.013  |g|= 0.0664  |ddm|= 1.62
    CPU time for cycle= 2      0.92 sec, wall time      0.08 sec
HOMO = 0.33978379854  LUMO = 1.01329717515
                  Roothaan           | alpha              | beta
  kpt  0 ( 0.000  0.000  0.000)
  Highest 2-occ =  0.339783798539549 |  0.344362284121849 |  0.344362284121849
  Lowest 0-occ =    1.01329717515038 |   1.01283759212578 |   1.01283759212578
  kpt  1 ( 0.529  0.000  0.000)
  Highest 2-occ =  0.161488103597966 |  0.162861732522125 |  0.162861732522125
  Lowest 0-occ =     1.1375348587038 |    1.1379418782248 |    1.1379418782248
     k-point                  Roothaan mo_energy
   0 ( 0.000  0.000  0.000)   [-0.65701372  0.27404225  0.27404225  0.3397838 ] [1.01329718 1.03299312 1.03299312 1.34033824 1.64403786 1.82088744
 1.82088744 2.22092534 2.22893501 2.22893501 2.70961837 2.70961837
 2.71353749 3.42563251 3.63235951 3.63852318 3.63852318 3.70142848
 3.70142848 4.75899973 4.76407815 4.76407815]
   1 ( 0.529  0.000  0.000)   [-0.38682021 -0.25686732  0.1614881   0.1614881 ] [ 1.13753486  1.16463467  1.16463467  1.40202277  1.69675998  1.80013465
  1.86388629  1.86388629  2.13808554  2.13808554  2.96172458  3.06938862
  3.06938862  3.19198393  3.19198393  3.21385258  3.79485019  3.79485019
  3.82297735  3.82297735  4.05117224 10.89787202]
Ewald components = 1.16914688656015e-69, -1.47470687199088, 1.24004469635362
    CPU time for vj and vk      0.72 sec, wall time      0.06 sec
Ewald components = 8.63915484117797e-26, -47.334679725158, 34.5590124922986
E1 = (4.408541970202158+1.4428969087251775e-14j)  E_coul = (-2.2439156880773434-5.355712753710509e-14j)
cycle= 3 E= -10.6110409507345  delta_E= -0.00099  |g|= 0.0127  |ddm|= 0.272
    CPU time for cycle= 3      0.93 sec, wall time      0.08 sec
HOMO = 0.342334970729  LUMO = 1.01422856985
                  Roothaan           | alpha              | beta
  kpt  0 ( 0.000  0.000  0.000)
  Highest 2-occ =  0.342334970728581 |  0.341866638525116 |  0.341866638525116
  Lowest 0-occ =    1.01422856985266 |   1.01408739671702 |   1.01408739671702
  kpt  1 ( 0.529  0.000  0.000)
  Highest 2-occ =  0.163052066138553 |  0.162786493737512 |  0.162786493737512
  Lowest 0-occ =    1.13851167002952 |   1.13835381651509 |   1.13835381651509
     k-point                  Roothaan mo_energy
   0 ( 0.000  0.000  0.000)   [-0.65595352  0.27577818  0.27577818  0.34233497] [1.01422857 1.03427076 1.03427076 1.34171531 1.64376662 1.82149327
 1.82149327 2.22163084 2.22971792 2.22971792 2.71133654 2.71133654
 2.71565057 3.42513817 3.63298847 3.63894293 3.63894293 3.70249483
 3.70249483 4.75995971 4.76506212 4.76506212]
   1 ( 0.529  0.000  0.000)   [-0.38514965 -0.25600947  0.16305207  0.16305207] [ 1.13851167  1.16541718  1.16541718  1.40184318  1.69812246  1.8022218
  1.8654214   1.8654214   2.1388255   2.1388255   2.96348158  3.07062342
  3.07062343  3.19315251  3.19315251  3.2135217   3.79574181  3.79574181
  3.82338745  3.82338745  4.05161425 10.90271347]
Ewald components = 1.16914688656015e-69, -1.47470687199088, 1.24004469635362
    CPU time for vj and vk      1.19 sec, wall time      0.10 sec
Ewald components = 8.63915484117797e-26, -47.334679725158, 34.5590124922986
E1 = (4.4084196119113095+1.4266067710835828e-14j)  E_coul = (-2.2438885571391642-5.298211413866383e-14j)
cycle= 4 E= -10.6111361780872  delta_E= -9.52e-05  |g|= 0.00738  |ddm|= 0.0742
    CPU time for cycle= 4      1.39 sec, wall time      0.12 sec
HOMO = 0.341640438371  LUMO = 1.01418438006
                  Roothaan           | alpha              | beta
  kpt  0 ( 0.000  0.000  0.000)
  Highest 2-occ =  0.341640438370798 |  0.341984956358807 |  0.341984956358807
  Lowest 0-occ =     1.0141843800597 |   1.01408711772218 |   1.01408711772218
  kpt  1 ( 0.529  0.000  0.000)
  Highest 2-occ =  0.162543932577233 |  0.162755465794121 |  0.162755465794121
  Lowest 0-occ =    1.13847240288866 |   1.13843943900135 |   1.13843943900135
     k-point                  Roothaan mo_energy
   0 ( 0.000  0.000  0.000)   [-0.65620101  0.27535765  0.27535765  0.34164044] [1.01418438 1.034046   1.034046   1.34133103 1.64387434 1.82137133
 1.82137133 2.2215069  2.22956991 2.22956991 2.71098606 2.71098606
 2.71523651 3.42524492 3.63287765 3.63885842 3.63885842 3.70228373
 3.70228373 4.75975956 4.76486301 4.76486301]
   1 ( 0.529  0.000  0.000)   [-0.38471733 -0.25753365  0.16254393  0.16254393] [ 1.1384724   1.16531121  1.16531121  1.40200753  1.69792507  1.80193949
  1.86551748  1.86551748  2.13837359  2.13837359  2.96357046  3.07058314
  3.07058314  3.19267837  3.19267837  3.21313147  3.79556735  3.79556735
  3.82332416  3.82332416  4.05155374 10.90168396]
Ewald components = 1.16914688656015e-69, -1.47470687199088, 1.24004469635362
    CPU time for vj and vk      0.72 sec, wall time      0.06 sec
Ewald components = 8.63915484117797e-26, -47.334679725158, 34.5590124922986
E1 = (4.409115818262596+1.4267802434311805e-14j)  E_coul = (-2.2446412431290166-5.275578693515748e-14j)
cycle= 5 E= -10.6111926577258  delta_E= -5.65e-05  |g|= 0.00125  |ddm|= 0.0873
    CPU time for cycle= 5      0.92 sec, wall time      0.08 sec
HOMO = 0.34191924956  LUMO = 1.01409850753
                  Roothaan           | alpha              | beta
  kpt  0 ( 0.000  0.000  0.000)
  Highest 2-occ =  0.341919249559956 |  0.341863248493321 |  0.341863248493321
  Lowest 0-occ =    1.01409850753369 |   1.01413272303027 |   1.01413272303027
  kpt  1 ( 0.529  0.000  0.000)
  Highest 2-occ =     0.162632584517 |  0.162635601413713 |  0.162635601413713
  Lowest 0-occ =    1.13856293618006 |   1.13854315676947 |   1.13854315676947
     k-point                  Roothaan mo_energy
   0 ( 0.000  0.000  0.000)   [-0.65613832  0.27549164  0.27549164  0.34191925] [1.01409851 1.03404001 1.03404001 1.34141424 1.6438599  1.82139494
 1.82139494 2.22149855 2.22958866 2.22958866 2.71106763 2.71106763
 2.71533744 3.42524123 3.63290218 3.63887954 3.63887954 3.70231804
 3.70231804 4.7597876  4.7649005  4.7649005 ]
   1 ( 0.529  0.000  0.000)   [-0.38457403 -0.25755097  0.16263258  0.16263258] [ 1.13856294  1.16532026  1.16532026  1.40198803  1.69798819  1.80205273
  1.86559441  1.86559441  2.13840155  2.13840155  2.96366487  3.07062862
  3.07062862  3.1927178   3.1927178   3.21305858  3.79559895  3.79559895
  3.82334659  3.82334659  4.05157448 10.90195345]
Ewald components = 1.16914688656015e-69, -1.47470687199088, 1.24004469635362
    CPU time for vj and vk      0.72 sec, wall time      0.06 sec
Ewald components = 8.63915484117797e-26, -47.334679725158, 34.5590124922986
E1 = (4.409173365436483+1.4281626012010995e-14j)  E_coul = (-2.244699918751161-5.277557362480534e-14j)
cycle= 6 E= -10.611193786174  delta_E= -1.13e-06  |g|= 0.000274  |ddm|= 0.00957
    CPU time for cycle= 6      0.92 sec, wall time      0.08 sec
HOMO = 0.341860871187  LUMO = 1.01412446766
                  Roothaan           | alpha              | beta
  kpt  0 ( 0.000  0.000  0.000)
  Highest 2-occ =  0.341860871186657 |  0.341869292611006 |  0.341869292611006
  Lowest 0-occ =    1.01412446765842 |    1.0141184147677 |    1.0141184147677
  kpt  1 ( 0.529  0.000  0.000)
  Highest 2-occ =  0.162628286833176 |  0.162625992053533 |  0.162625992053533
  Lowest 0-occ =    1.13857824756511 |   1.13857010847706 |   1.13857010847706
     k-point                  Roothaan mo_energy
   0 ( 0.000  0.000  0.000)   [-0.65614058  0.27547716  0.27547716  0.34186087] [1.01412447 1.03404815 1.03404815 1.34142896 1.6438594  1.82139575
 1.82139575 2.22150574 2.22958964 2.22958964 2.71106275 2.71106275
 2.71532885 3.42523895 3.63290078 3.63887805 3.63887805 3.70231754
 3.70231754 4.75978761 4.76489917 4.76489917]
   1 ( 0.529  0.000  0.000)   [-0.38457254 -0.25759266  0.16262829  0.16262829] [ 1.13857825  1.16532626  1.16532626  1.40199628  1.69798547  1.80205072
  1.86558578  1.86558578  2.13839422  2.13839422  2.96366321  3.07062822
  3.07062822  3.19272106  3.19272106  3.21305633  3.79559838  3.79559838
  3.82334737  3.82334737  4.05158008 10.9019375 ]
Ewald components = 1.16914688656015e-69, -1.47470687199088, 1.24004469635362
    CPU time for vj and vk      0.73 sec, wall time      0.06 sec
Ewald components = 8.63915484117797e-26, -47.334679725158, 34.5590124922986
E1 = (4.40918895515277+1.4265281664260776e-14j)  E_coul = (-2.244715547864215-5.2750630198574594e-14j)
cycle= 7 E= -10.6111938255708  delta_E= -3.94e-08  |g|= 7.74e-05  |ddm|= 0.00156
    CPU time for cycle= 7      0.93 sec, wall time      0.08 sec
HOMO = 0.341863715382  LUMO = 1.0141179175
                  Roothaan           | alpha              | beta
  kpt  0 ( 0.000  0.000  0.000)
  Highest 2-occ =  0.341863715381813 |  0.341863715381812 |  0.341863715381812
  Lowest 0-occ =    1.01411791749625 |   1.01411791749625 |   1.01411791749625
  kpt  1 ( 0.529  0.000  0.000)
  Highest 2-occ =  0.162626637008882 |  0.162626637008882 |  0.162626637008882
  Lowest 0-occ =    1.13857685674846 |   1.13857685674846 |   1.13857685674846
     k-point                  Roothaan mo_energy
   0 ( 0.000  0.000  0.000)   [-0.65614243  0.27547576  0.27547576  0.34186372] [1.01411792 1.03404441 1.03404441 1.34142391 1.6438603  1.82139454
 1.82139454 2.22150349 2.22958779 2.22958779 2.71105953 2.71105953
 2.71532535 3.42524008 3.63289984 3.63887722 3.63887722 3.70231562
 3.70231562 4.75978571 4.76489734 4.76489734]
   1 ( 0.529  0.000  0.000)   [-0.38457373 -0.25759449  0.16262664  0.16262664] [ 1.13857686  1.16532414  1.16532414  1.401996    1.69798262  1.80204702
  1.86558209  1.86558209  2.13839397  2.13839397  2.96366109  3.07062529
  3.07062529  3.1927188   3.1927188   3.21305532  3.79559665  3.79559665
  3.82334641  3.82334641  4.05157886 10.90192819]
Ewald components = 1.16914688656015e-69, -1.47470687199088, 1.24004469635362
    CPU time for vj and vk      0.72 sec, wall time      0.06 sec
Ewald components = 8.63915484117797e-26, -47.334679725158, 34.5590124922986
E1 = (4.4091887807111885+1.4275418954573516e-14j)  E_coul = (-2.2447153762653107-5.2748075547205675e-14j)
Extra cycle  E= -10.6111938284135  delta_E= -2.84e-09  |g|= 4.63e-05  |ddm|= 0.000374
    CPU time for scf_cycle    355.77 sec, wall time     32.61 sec
    CPU time for SCF    355.78 sec, wall time     32.62 sec
converged SCF energy = -10.6111938284135
e_scf -10.611193828413462
Using Python 3.x
Wavefunction successfully saved to QMCPACK HDF5 Format
Use: "convert4qmc -pyscf  C_diamond-twist.h5" to generate QMCPACK input files
n Kpts 2
n active Mos per kpt 26
n AOs per kpt 26
n_atom per kpt 2
0 0 0 8 1 0
0 1 0 1 1 1
0 2 1 7 1 2
0 3 1 1 1 3
0 4 2 1 1 4
1 5 0 8 1 5
1 6 0 1 1 6
1 7 1 7 1 7
1 8 1 1 1 8
1 9 2 1 1 9
num_elec per kpt 8
Ewald components = 1.16914688656015e-69, -1.47470687199088, 1.24004469635362
Ewald components = 8.63915484117797e-26, -47.334679725158, 34.5590124922986
nucl_repul -29.305929275914895
using old get_j3ao_new
n df fitting functions 98
