Discarded 6 diffused primitive functions, 0 contracted functions
#INFO: **** input file is /home/abenali/Work/Development/QMCPACK-Benali/qmcpack/tests/solids/diamondC_2x1x1-Gaussian_pp_kpts/dft-inputs/diamondC_2x1x1.py ****
#!/usr/bin/env python

import numpy
from pyscf.pbc import gto, scf, dft
from pyscf import gto as Mgto
from pyscf.pbc import df 
from pyscf.pbc import tools
from pyscf.pbc.tools.pbc import super_cell


kmesh = [2, 1, 1]

cell = gto.Cell()
cell.a = '''
         3.37316115       3.37316115       0.00000000
         0.00000000       3.37316115       3.37316115
         3.37316115       0.00000000       3.37316115'''
cell.atom = '''  
   C        0.00000000       0.00000000       0.00000000
   C        1.686580575      1.686580575      1.686580575 
            '''
cell.basis='bfd-vtz'
cell.ecp = 'bfd'

cell.unit='B'
cell.drop_exponent=0.1

cell.verbose = 5


cell.build()



kpts = cell.make_kpts(kmesh)
kpts -= kpts[0]

supcell=cell
mydf = df.GDF(supcell,kpts)
mydf.auxbasis = 'weigend'
mydf._cderi_to_save = 'df_ints.h5'
mydf.build()
mf = scf.KRHF(supcell,kpts).density_fit()




mf.exxdiv = 'ewald'
mf.with_df = mydf
mf.chkfile ='diamond-scf.chk'
#dm = mf.from_chk('diamond-scf.chk')
mf.with_df._cderi = 'df_ints.h5'
#e_scf=mf.kernel(dm)
e_scf=mf.kernel()


title="C_Diamond-211"

from PyscfToQmcpack import savetoqmcpack
savetoqmcpack(supcell,mf,title=title,kpts=kpts,kmesh=kmesh)

#INFO: ******************** input file end ********************


System: ('Linux', 'abenali', '4.13.0-45-generic', '#50~16.04.1-Ubuntu SMP Wed May 30 11:18:27 UTC 2018', 'x86_64', 'x86_64')  Threads 8
Python 2.7.12 (default, Dec  4 2017, 14:50:18) 
[GCC 5.4.0 20160609]
numpy 1.14.0  scipy 1.0.0
Date: Wed Aug 15 13:54:26 2018
PySCF version 1.5.0
PySCF path  /usr/local/lib/python2.7/dist-packages/pyscf

[CONFIG] conf_file None
[INPUT] verbose = 5
[INPUT] max_memory = 4000 
[INPUT] num. atoms = 2
[INPUT] num. electrons = 8
[INPUT] charge = 0
[INPUT] spin (= nelec alpha-beta = 2S) = 0
[INPUT] symmetry False subgroup None
[INPUT] Mole.unit = B
[INPUT]  1 C      0.000000000000   0.000000000000   0.000000000000 AA    0.000000000000   0.000000000000   0.000000000000 Bohr
[INPUT]  2 C      0.892500004670   0.892500004670   0.892500004670 AA    1.686580575000   1.686580575000   1.686580575000 Bohr
[INPUT] ---------------- BASIS SET ---------------- 
[INPUT] l, kappa, [nprim/nctr], expnt,             c_1 c_2 ...
[INPUT] C
[INPUT] 0    0    [8    /1   ]  13.073594         -0.000705
                                6.541187          0.015176
                                3.272791          -0.121499
                                1.637494          -0.033512
                                0.819297          0.180113
                                0.409924          0.380369
                                0.2051            0.397529
                                0.102619          0.169852
[INPUT] 0    0    [1    /1   ]  0.921552             1
[INPUT] 0    0    [1    /1   ]  0.1328               1
[INPUT] 1    0    [7    /1   ]  7.480076          0.021931
                                3.741035          0.054425
                                1.871016          0.112024
                                0.935757          0.210979
                                0.468003          0.289868
                                0.234064          0.302667
                                0.117063          0.191634
[INPUT] 1    0    [1    /1   ]  0.126772             1
[INPUT] 1    0    [1    /1   ]  0.376742             1
[INPUT] 2    0    [1    /1   ]  0.329486             1
[INPUT] 2    0    [1    /1   ]  1.141611             1
[INPUT] 3    0    [1    /1   ]  0.773485             1

Ewald components = 1.76043195084572e-15, -36.7282243593125, 23.9525571243292
nuclear repulsion = -12.7756672349833
number of shells = 18
number of NR pGTOs = 108
number of NR cGTOs = 58
basis = bfd-vtz
ecp = bfd
CPU time:         0.87
lattice vectors  a1 [3.373161150, 3.373161150, 0.000000000]
                 a2 [0.000000000, 3.373161150, 3.373161150]
                 a3 [3.373161150, 0.000000000, 3.373161150]
dimension = 3
Cell volume = 76.7611
exp_to_discard = 0.1
rcut = 19.979446804953323 (nimgs = [6 6 6])
lattice sum = 1031 cells
precision = 1e-08
pseudo = None
ke_cutoff = 210.04046196104096
    = [26 26 26] mesh (17576 PWs)
ew_eta = 2.01651
ew_cut = 3.4228673672384344 (nimgs = [1 1 1])


******** <class 'pyscf.pbc.df.df.GDF'> flags ********
mesh = [7 7 7] (343 PWs)
auxbasis = weigend
eta = 0.2
_cderi_to_save = df_ints.h5
len(kpts) = 2
num shells = 30, num cGTOs = 98
Drop 2 primitive fitting functions
make aux basis, num shells = 28, num cGTOs = 96
auxcell.rcut 10.547599302368296
Num uniq kpts 2


******** <class 'pyscf.pbc.scf.khf.KRHF'> flags ********
method = KRHF-KSCF-SCF
initial guess = minao
damping factor = 0
level shift factor = 0
DIIS = <class 'pyscf.scf.diis.CDIIS'>
DIIS start cycle = 1
DIIS space = 8
SCF tol = 1e-07
SCF gradient tol = None
max. SCF cycles = 50
direct_scf = False
chkfile to save SCF result = diamond-scf.chk
max_memory 4000 MB (current use 199 MB)


******** PBC SCF flags ********
N kpts = 2
kpts = [[ 0.          0.          0.        ]
 [ 0.46567485  0.46567485 -0.46567485]]
Exchange divergence treatment (exxdiv) = ewald
Ewald components = 2.38405713413658e-42, -1.14020834016724, 0.905546164474777
    madelung (= occupied orbital energy shift) = 0.4693243513849352
    Total energy shift due to Ewald probe charge = -1/2 * Nelec*madelung/cell.vol = -1.87729740554
DF object = <pyscf.pbc.df.df.GDF object at 0x15346bce7210>
Set gradient conv threshold to 0.000316228
cond(S) = [14423795.74503281  4249847.21770206]
Ewald components = 2.38405713413658e-42, -1.14020834016724, 0.905546164474777
    CPU time for vj and vk     26.60 sec, wall time      3.92 sec
E1 = (3.7540160966015836-1.4456028965253488e-19j)  E_coul = (-6.821484175135927-5.089096687351112e-32j)
Ewald components = 1.76043195084572e-15, -36.7282243593125, 23.9525571243292
init E= -15.8431353135176
    CPU time for initialize scf    903.45 sec, wall time    131.58 sec
HOMO = 0.605007885308  LUMO = 0.793790958737
     k-point                  mo_energy
   0 ( 0.000  0.000  0.000)   [-2.20519656  0.54953786  0.60500789  0.60500789] [0.79379096 0.87276774 0.87276774 1.07797178 1.45288666 1.75109587
 1.75109587 1.76209073 1.78398525 1.78398525 2.12387353 2.61227226
 2.6171836  2.6171836  3.36010316 3.36010317 3.3616475  3.53299269
 3.53299269 3.74374891 3.7476501  3.7476501  3.94870027 3.94870028
 3.95074437 4.56856873 4.56906797 4.56906799 4.92039185 4.92304867
 4.92304867 4.97366464 5.12704359 5.12773565 5.12773565 5.13020704
 5.13020704 5.37898249 5.37898249 5.43325098 5.43407072 5.43407072
 5.57506393 6.53265623 6.53265625 6.53644716 6.55770514 6.55770514
 6.56046179 6.77726056 8.56308456 8.56308486 8.56418265 9.37369838]
   1 ( 0.500  0.000  0.000)   [-1.03742609 -0.69009029  0.454884    0.454884  ] [ 0.92125558  1.00634173  1.00634173  1.31840806  1.58037531  1.67113202
  1.74752863  1.74752863  2.04947509  2.04947509  2.5668405   2.83559831
  2.83559831  2.8730704   3.03872863  3.03872864  3.07258745  3.07258745
  3.35527548  3.67775565  3.67775565  3.77582485  3.77582485  3.86568818
  4.03519311  4.11536377  4.22653395  4.22653396  4.57560322  4.88739266
  5.20194795  5.24089636  5.24089636  5.3192871   5.58749015  5.58749015
  5.6856197   5.6856197   5.71402084  5.71402084  5.9229001   6.10410214
  6.24646906  6.24646906  6.47206682  6.47206682  6.7388828   6.73888281
  7.10867365  7.3147001   7.82470345  7.82470346  8.64614865 11.55831339]
Ewald components = 2.38405713413658e-42, -1.14020834016724, 0.905546164474777
    CPU time for vj and vk     26.55 sec, wall time      3.88 sec
E1 = (4.419501099728888-1.5349699967076296e-19j)  E_coul = (-2.247066829117876+6.708495090916012e-19j)
Ewald components = 1.76043195084572e-15, -36.7282243593125, 23.9525571243292
cycle= 1 E= -10.6032329643723  delta_E= 5.24  |g|= 0.353  |ddm|= 6.31
    CPU time for cycle= 1     26.81 sec, wall time      3.92 sec
HOMO = 0.349101378047  LUMO = 1.00565912226
     k-point                  mo_energy
   0 ( 0.000  0.000  0.000)   [-0.66029679  0.27443793  0.27443793  0.34910138] [1.00565912 1.02544642 1.02544642 1.33076401 1.53251969 1.79004805
 1.79004805 1.80266251 1.81480815 1.81480815 2.13818952 2.66645585
 2.66645585 2.67055101 3.39369507 3.40088308 3.40088309 3.5694247
 3.5694247  3.7852467  3.7852467  3.78670736 4.00319734 4.00517252
 4.00517252 4.59443283 4.59789388 4.5978939  4.95741766 4.96159122
 4.96159122 5.06167358 5.15236024 5.15631221 5.15631221 5.17486026
 5.17486026 5.42734029 5.42734029 5.46365539 5.46365539 5.47642334
 5.60361    6.58716422 6.59109394 6.59907021 6.59907023 6.60058754
 6.60058754 6.86676619 8.61689362 8.62613039 8.62613069 9.49923078]
   1 ( 0.500  0.000  0.000)   [-0.37810795 -0.26399716  0.15955086  0.15955086] [ 1.13436391  1.15911709  1.15911709  1.39542825  1.65341362  1.75928164
  1.78305174  1.78305174  2.07635367  2.07635367  2.60416707  2.87237336
  2.87237336  2.92720706  3.0568642   3.05686421  3.1165774   3.1165774
  3.36856731  3.70720477  3.70720478  3.82943235  3.82943235  3.91086052
  4.08625507  4.1486936   4.25143834  4.25143834  4.64190744  4.92469558
  5.2677217   5.29343333  5.29343333  5.36150338  5.64831195  5.64831196
  5.73327716  5.73327717  5.76359473  5.76359473  5.95157155  6.13880048
  6.28928206  6.28928207  6.50943258  6.50943258  6.77417038  6.77417039
  7.14740573  7.3839226   7.89401655  7.89401656  8.74708186 11.66475503]
Ewald components = 2.38405713413658e-42, -1.14020834016724, 0.905546164474777
    CPU time for vj and vk     28.05 sec, wall time      4.10 sec
E1 = (4.407467865622473-1.7891933005895885e-19j)  E_coul = (-2.2479542822548177+6.388703267416661e-19j)
Ewald components = 1.76043195084572e-15, -36.7282243593125, 23.9525571243292
cycle= 2 E= -10.6161536516156  delta_E= -0.0129  |g|= 0.0693  |ddm|=    2
    CPU time for cycle= 2     28.54 sec, wall time      4.17 sec
HOMO = 0.339279814177  LUMO = 1.01088954778
     k-point                  mo_energy
   0 ( 0.000  0.000  0.000)   [-0.65748802  0.27445293  0.27445293  0.33927981] [1.01088955 1.03070852 1.03070852 1.33788972 1.53371567 1.79168668
 1.79168668 1.80366825 1.81379423 1.81379423 2.13595652 2.66723059
 2.66723059 2.66938583 3.39486171 3.40195214 3.40195214 3.57143562
 3.57143562 3.78742146 3.78742146 3.79041338 4.00337338 4.00546562
 4.00546562 4.59510468 4.59832784 4.59832786 4.96076603 4.96253691
 4.96253691 5.06633407 5.15441721 5.1576628  5.15766281 5.17649882
 5.17649882 5.42925242 5.42925242 5.46589578 5.46589578 5.47755694
 5.60335071 6.58860945 6.59187997 6.60078669 6.60078671 6.6008914
 6.6008914  6.86643028 8.61843616 8.62697951 8.62697981 9.50060885]
   1 ( 0.500  0.000  0.000)   [-0.37703023 -0.26654044  0.16138996  0.16138996] [ 1.13675134  1.16247275  1.16247275  1.39716288  1.6539626   1.76051183
  1.783856    1.783856    2.07565493  2.07565493  2.60538724  2.87321051
  2.87321051  2.92849803  3.0568469   3.0568469   3.11918531  3.11918532
  3.36885636  3.70829588  3.70829588  3.83243617  3.83243617  3.91482765
  4.08731922  4.14731454  4.25090803  4.25090804  4.64639283  4.92531215
  5.26863015  5.29536119  5.29536119  5.36405069  5.65061118  5.65061119
  5.73498847  5.73498848  5.76489019  5.76489019  5.95256443  6.13967741
  6.29091653  6.29091653  6.50995536  6.50995536  6.77482267  6.77482268
  7.14905623  7.38693634  7.89518819  7.8951882   8.74715503 11.66332669]
Ewald components = 2.38405713413658e-42, -1.14020834016724, 0.905546164474777
    CPU time for vj and vk     26.71 sec, wall time      3.88 sec
E1 = (4.406117536203949-1.8033878921869876e-19j)  E_coul = (-2.2472887110221933+6.330320829393975e-19j)
Ewald components = 1.76043195084572e-15, -36.7282243593125, 23.9525571243292
cycle= 3 E= -10.6168384098015  delta_E= -0.000685  |g|= 0.00567  |ddm|= 0.464
    CPU time for cycle= 3     26.93 sec, wall time      3.92 sec
HOMO = 0.339518557894  LUMO = 1.01105847027
     k-point                  mo_energy
   0 ( 0.000  0.000  0.000)   [-0.65724081  0.27449531  0.27449531  0.33951856] [1.01105847 1.03105473 1.03105473 1.3378444  1.53382848 1.79157936
 1.79157936 1.80344276 1.81389222 1.81389222 2.1358528  2.66727593
 2.66727593 2.66964449 3.39513086 3.40194917 3.40194917 3.57147299
 3.57147299 3.78767432 3.78767432 3.79013189 4.00367578 4.00560573
 4.00560573 4.59522428 4.59834411 4.59834414 4.96055034 4.96280964
 4.96280965 5.06649296 5.15453362 5.15768264 5.15768264 5.17663516
 5.17663516 5.42939414 5.42939414 5.46602967 5.46602967 5.47754139
 5.60337246 6.58915843 6.59213855 6.60078193 6.60078195 6.60090514
 6.60090514 6.86660427 8.61874891 8.62712323 8.62712353 9.50095796]
   1 ( 0.500  0.000  0.000)   [-0.37695116 -0.26582619  0.16166239  0.16166239] [ 1.13648798  1.16247954  1.16247954  1.39726786  1.65383437  1.76085437
  1.78385444  1.78385444  2.07587375  2.07587375  2.60516064  2.87328745
  2.87328745  2.92880263  3.05682528  3.05682528  3.1189713   3.11897131
  3.3685639   3.70839016  3.70839017  3.83240894  3.83240894  3.91451668
  4.0874235   4.14779541  4.25126173  4.25126173  4.64627789  4.92536976
  5.26907895  5.29532979  5.29532979  5.36430043  5.65074153  5.65074153
  5.7352324   5.7352324   5.76534614  5.76534614  5.95279151  6.13979343
  6.29098805  6.29098805  6.51006667  6.51006667  6.7750379   6.77503791
  7.1492391   7.38696564  7.89516016  7.89516017  8.74781714 11.66378481]
Ewald components = 2.38405713413658e-42, -1.14020834016724, 0.905546164474777
    CPU time for vj and vk     26.79 sec, wall time      3.89 sec
E1 = (4.4061795352098425-1.8056153137699176e-19j)  E_coul = (-2.2473566623584693+6.317293364239364e-19j)
Ewald components = 1.76043195084572e-15, -36.7282243593125, 23.9525571243292
cycle= 4 E= -10.6168443621319  delta_E= -5.95e-06  |g|= 0.000951  |ddm|= 0.0534
    CPU time for cycle= 4     27.30 sec, wall time      3.96 sec
HOMO = 0.339410547401  LUMO = 1.01104408572
     k-point                  mo_energy
   0 ( 0.000  0.000  0.000)   [-0.65728117  0.27445658  0.27445658  0.33941055] [1.01104409 1.03105888 1.03105888 1.33782408 1.53384152 1.79156893
 1.79156893 1.80349333 1.8138942  1.8138942  2.13585833 2.66725755
 2.66725755 2.66960109 3.39512259 3.40193863 3.40193863 3.57146101
 3.57146101 3.78765541 3.78765541 3.79015537 4.00362448 4.00556937
 4.00556937 4.59522365 4.59832844 4.59832847 4.96056674 4.96278659
 4.96278659 5.06646609 5.1545515  5.15767229 5.15767229 5.17661561
 5.17661561 5.42937784 5.42937784 5.46602818 5.46602818 5.47753428
 5.6033542  6.58910274 6.59210976 6.60074953 6.60074955 6.60087319
 6.60087319 6.86652929 8.61871268 8.62707647 8.62707677 9.50085654]
   1 ( 0.500  0.000  0.000)   [-0.37696491 -0.26593019  0.16163289  0.16163289] [ 1.1364346   1.16249652  1.16249652  1.39732828  1.65383303  1.76072692
  1.78380381  1.78380381  2.07584889  2.07584889  2.605204    2.87328799
  2.87328799  2.92881672  3.05684488  3.05684489  3.11897462  3.11897462
  3.36859699  3.7083847   3.70838471  3.83239408  3.83239408  3.91454517
  4.08740619  4.1477306   4.25122142  4.25122142  4.64627122  4.92535415
  5.26902849  5.2953049   5.2953049   5.36429314  5.65071468  5.65071469
  5.73519964  5.73519964  5.76529511  5.76529512  5.9527738   6.13977006
  6.29097282  6.29097282  6.51005225  6.51005225  6.77501082  6.77501083
  7.14920581  7.38693823  7.89512194  7.89512195  8.74772532 11.66366815]
Ewald components = 2.38405713413658e-42, -1.14020834016724, 0.905546164474777
    CPU time for vj and vk     25.99 sec, wall time      3.79 sec
E1 = (4.4061699991852-1.8059837197667773e-19j)  E_coul = (-2.2473473581459222+6.314618687638103e-19j)
Ewald components = 1.76043195084572e-15, -36.7282243593125, 23.9525571243292
cycle= 5 E= -10.616844593944  delta_E= -2.32e-07  |g|= 0.000136  |ddm|= 0.014
    CPU time for cycle= 5     26.41 sec, wall time      3.85 sec
HOMO = 0.339435470985  LUMO = 1.01104221008
     k-point                  mo_energy
   0 ( 0.000  0.000  0.000)   [-0.65727801  0.27445619  0.27445619  0.33943547] [1.01104221 1.03106439 1.03106439 1.33782024 1.53384269 1.79156814
 1.79156814 1.80348395 1.81389598 1.81389598 2.13585664 2.66725889
 2.66725889 2.66961021 3.39512723 3.40193963 3.40193963 3.57146202
 3.57146202 3.78766123 3.78766123 3.79014834 4.00363125 4.00557415
 4.00557415 4.59522721 4.59832908 4.5983291  4.96055736 4.96279441
 4.96279441 5.06647078 5.15455428 5.15767179 5.15767179 5.17661899
 5.17661899 5.42938087 5.42938087 5.46602917 5.46602917 5.47753687
 5.60335636 6.58911528 6.59211563 6.60075094 6.60075096 6.6008755
 6.60087551 6.86653869 8.61871991 8.62708151 8.62708181 9.50086948]
   1 ( 0.500  0.000  0.000)   [-0.37696219 -0.26590349  0.1616363   0.1616363 ] [ 1.13642162  1.16249409  1.16249409  1.39732656  1.65383007  1.76073404
  1.78380523  1.78380523  2.07585896  2.07585896  2.60520032  2.87328972
  2.87328972  2.92882942  3.05684432  3.05684433  3.1189661   3.11896611
  3.3685886   3.70838702  3.70838702  3.83239325  3.83239325  3.91453717
  4.08740744  4.14774439  4.25123245  4.25123245  4.64626729  4.92535847
  5.2690416   5.29530206  5.29530206  5.3642981   5.65071877  5.65071878
  5.73520592  5.73520592  5.7653064   5.7653064   5.95277802  6.13977206
  6.29097397  6.29097398  6.51005726  6.51005726  6.77501671  6.77501672
  7.14920785  7.38693972  7.89512259  7.8951226   8.74774724 11.66368486]
Ewald components = 2.38405713413658e-42, -1.14020834016724, 0.905546164474777
    CPU time for vj and vk     31.13 sec, wall time      4.54 sec
E1 = (4.40616578200346-1.8060258947130344e-19j)  E_coul = (-2.2473431454878012+6.314242831138051e-19j)
Ewald components = 1.76043195084572e-15, -36.7282243593125, 23.9525571243292
cycle= 6 E= -10.6168445984676  delta_E= -4.52e-09  |g|= 2.11e-05  |ddm|= 0.00158
    CPU time for cycle= 6     31.90 sec, wall time      4.65 sec
HOMO = 0.339435859964  LUMO = 1.0110416256
     k-point                  mo_energy
   0 ( 0.000  0.000  0.000)   [-0.65727774  0.27445619  0.27445619  0.33943586] [1.01104163 1.031065   1.031065   1.33782064 1.53384279 1.79156841
 1.79156841 1.80348374 1.81389584 1.81389584 2.13585648 2.66725902
 2.66725902 2.66961028 3.39512734 3.40193964 3.40193964 3.57146225
 3.57146225 3.78766142 3.78766142 3.79014843 4.00363138 4.00557433
 4.00557433 4.59522749 4.59832904 4.59832907 4.96055735 4.96279463
 4.96279463 5.06647111 5.1545547  5.15767172 5.15767172 5.17661918
 5.17661918 5.42938101 5.42938101 5.46602931 5.46602931 5.47753694
 5.6033564  6.5891157  6.59211596 6.60075112 6.60075113 6.60087558
 6.60087559 6.86653887 8.61872032 8.62708167 8.62708196 9.50086986]
   1 ( 0.500  0.000  0.000)   [-0.37696127 -0.26590273  0.1616365   0.1616365 ] [ 1.13642008  1.16249422  1.16249422  1.39732626  1.65382968  1.76073359
  1.78380565  1.78380565  2.07585925  2.07585925  2.60520067  2.87328968
  2.87328968  2.9288303   3.05684431  3.05684432  3.11896607  3.11896607
  3.36858864  3.70838719  3.70838719  3.83239337  3.83239337  3.91453726
  4.08740764  4.1477444   4.25123252  4.25123252  4.64626741  4.92535851
  5.26904205  5.29530204  5.29530204  5.36429851  5.65071901  5.65071901
  5.73520609  5.73520609  5.76530666  5.76530666  5.95277821  6.13977217
  6.29097413  6.29097414  6.51005748  6.51005748  6.77501681  6.77501682
  7.14920801  7.38693989  7.89512274  7.89512275  8.74774796 11.66368523]
Ewald components = 2.38405713413658e-42, -1.14020834016724, 0.905546164474777
    CPU time for vj and vk     28.69 sec, wall time      4.17 sec
E1 = (4.406164814169976-1.8060398533647939e-19j)  E_coul = (-2.247342177761209+6.31418052096026e-19j)
Ewald components = 1.76043195084572e-15, -36.7282243593125, 23.9525571243292
Extra cycle  E= -10.6168445985745  delta_E= -1.07e-10  |g|= 7.46e-06  |ddm|= 0.000297
    CPU time for scf_cycle   1100.29 sec, wall time    160.26 sec
    CPU time for SCF   1100.34 sec, wall time    160.27 sec
converged SCF energy = -10.6168445985745
Using Python 2.x
Wavefunction successfuly saved to QMCPACK HDF5 Format
Use: "convert4qmc -pyscf  C_Diamond-211.h5" to generate QMCPACK input files
