----- GAMESS execution script 'rungms' -----
This job is running on host sven
under operating system Linux at Wed Feb 17 22:04:31 CST 2016
Available scratch disk space (Kbyte units) at beginning of the job is
Filesystem     1K-blocks      Used Available Use% Mounted on
/dev/md0       403987152 307848680  75617052  81% /mnt/stripe
GAMESS temporary binary files will be written to /mnt/stripe/mdewing/scr
GAMESS supplementary output files will be written to /mnt/stripe/mdewing/userscr
Copying input file gms.inp to your run's scratch directory...

 Distributed Data Interface kickoff program.
 Initiating 1 compute processes on 1 nodes to run the following command:
 /home/mdewing/data/physics/gamess/gamess/gamess.00.x gms 

          ******************************************************
          *         GAMESS VERSION =  5 DEC 2014 (R1)          *
          *             FROM IOWA STATE UNIVERSITY             *
          * M.W.SCHMIDT, K.K.BALDRIDGE, J.A.BOATZ, S.T.ELBERT, *
          *   M.S.GORDON, J.H.JENSEN, S.KOSEKI, N.MATSUNAGA,   *
          *          K.A.NGUYEN, S.J.SU, T.L.WINDUS,           *
          *       TOGETHER WITH M.DUPUIS, J.A.MONTGOMERY       *
          *         J.COMPUT.CHEM.  14, 1347-1363(1993)        *
          **************** 64 BIT LINUX VERSION ****************

  SINCE 1993, STUDENTS AND POSTDOCS WORKING AT IOWA STATE UNIVERSITY
  AND ALSO IN THEIR VARIOUS JOBS AFTER LEAVING ISU HAVE MADE IMPORTANT
  CONTRIBUTIONS TO THE CODE:
     IVANA ADAMOVIC, CHRISTINE AIKENS, YURI ALEXEEV, POOJA ARORA,
     ANDREY ASADCHEV, ROB BELL, PRADIPTA BANDYOPADHYAY, JONATHAN BENTZ,
     BRETT BODE, KURT BRORSEN, CALEB CARLIN, GALINA CHABAN, WEI CHEN,
     CHEOL HO CHOI, PAUL DAY, ALBERT DEFUSCO, NUWAN DESILVA, TIM DUDLEY,
     DMITRI FEDOROV, GRAHAM FLETCHER, MARK FREITAG, KURT GLAESEMANN,
     DAN KEMP, GRANT MERRILL, NORIYUKI MINEZAWA, JONATHAN MULLIN,
     TAKESHI NAGATA, SEAN NEDD, HEATHER NETZLOFF, BOSILJKA NJEGIC, RYAN OLSON,
     MIKE PAK, SPENCER PRUITT, LUKE ROSKOP, JIM SHOEMAKER, LYUDMILA SLIPCHENKO,
     TONY SMITH, SAROM SOK, JIE SONG, TETSUYA TAKETSUGU, SIMON WEBB,
     PENG XU, SOOHAENG YOO, FEDERICO ZAHARIEV

  ADDITIONAL CODE HAS BEEN PROVIDED BY COLLABORATORS IN OTHER GROUPS:
     IOWA STATE UNIVERSITY:
          JOE IVANIC, AARON WEST, LAIMUTIS BYTAUTAS, KLAUS RUEDENBERG
     UNIVERSITY OF TOKYO: KIMIHIKO HIRAO, TAKAHITO NAKAJIMA,
          TAKAO TSUNEDA, MUNEAKI KAMIYA, SUSUMU YANAGISAWA,
          KIYOSHI YAGI, MAHITO CHIBA, SEIKEN TOKURA, NAOAKI KAWAKAMI
     UNIVERSITY OF AARHUS: FRANK JENSEN
     UNIVERSITY OF IOWA: VISVALDAS KAIRYS, HUI LI
     NATIONAL INST. OF STANDARDS AND TECHNOLOGY: WALT STEVENS, DAVID GARMER
     UNIVERSITY OF PISA: BENEDETTA MENNUCCI, JACOPO TOMASI
     UNIVERSITY OF MEMPHIS: HENRY KURTZ, PRAKASHAN KORAMBATH
     UNIVERSITY OF ALBERTA: TOBY ZENG, MARIUSZ KLOBUKOWSKI
     UNIVERSITY OF NEW ENGLAND: MARK SPACKMAN
     MIE UNIVERSITY: HIROAKI UMEDA
     NAT. INST. OF ADVANCED INDUSTRIAL SCIENCE AND TECHNOLOGY: KAZUO KITAURA
     MICHIGAN STATE UNIVERSITY:
          KAROL KOWALSKI, MARTA WLOCH, JEFFREY GOUR, JESSE LUTZ,
          WEI LI, PIOTR PIECUCH
     UNIVERSITY OF SILESIA: MONIKA MUSIAL, STANISLAW KUCHARSKI
     FACULTES UNIVERSITAIRES NOTRE-DAME DE LA PAIX:
          OLIVIER QUINET, BENOIT CHAMPAGNE
     UNIVERSITY OF CALIFORNIA - SANTA BARBARA: BERNARD KIRTMAN
     INSTITUTE FOR MOLECULAR SCIENCE:
          KAZUYA ISHIMURA, MICHIO KATOUDA, AND SHIGERU NAGASE
     UNIVERSITY OF NOTRE DAME: ANNA POMOGAEVA, DAN CHIPMAN
     KYUSHU UNIVERSITY:
          HARUYUKI NAKANO,
          FENG LONG GU, JACEK KORCHOWIEC, MARCIN MAKOWSKI, AND YURIKO AOKI,
          HIROTOSHI MORI AND EISAKU MIYOSHI
     PENNSYLVANIA STATE UNIVERSITY:
          TZVETELIN IORDANOV, CHET SWALINA, JONATHAN SKONE,
          SHARON HAMMES-SCHIFFER
     WASEDA UNIVERSITY:
          MASATO KOBAYASHI, TOMOKO AKAMA, TSUGUKI TOUMA,
          TAKESHI YOSHIKAWA, YASUHIRO IKABATA, HIROMI NAKAI
     NANJING UNIVERSITY: SHUHUA LI
     UNIVERSITY OF NEBRASKA:
          PEIFENG SU, DEJUN SI, NANDUN THELLAMUREGE, YALI WANG, HUI LI
     UNIVERSITY OF ZURICH: ROBERTO PEVERATI, KIM BALDRIDGE
     N. COPERNICUS UNIVERSITY AND JACKSON STATE UNIVERSITY:
          MARIA BARYSZ
     UNIVERSITY OF COPENHAGEN: CASPER STEINMANN
     TOKYO INSTITUTE OF TECHNOLOGY: HIROYA NAKATA
     NAGOYA UNIVERSITY: YOSHIO NISHIMOTO, STEPHAN IRLE

 EXECUTION OF GAMESS BEGUN Wed Feb 17 22:04:31 2016

            ECHO OF THE FIRST FEW INPUT CARDS -
 INPUT CARD> $contrl exetyp=run icharg=0 ispher=1 maxit=200 mult=3 nosym=1                  
 INPUT CARD>         runtyp=energy scftyp=uhf  $end                                         
 INPUT CARD> $system memory=150000000  $end                                                 
 INPUT CARD> $guess  guess=huckel  $end                                                     
 INPUT CARD> $DATA                                                                          
 INPUT CARD>A molecule.                                                                     
 INPUT CARD>Dnh  2                                                                          
 INPUT CARD>                                                                                
 INPUT CARD>O 8.00       0.00000000       0.00000000       0.00000000                       
 INPUT CARD>S   10                                                                          
 INPUT CARD>  1 164200.0000000              0.0000260                                       
 INPUT CARD>  2  24590.0000000              0.0002050                                       
 INPUT CARD>  3   5592.0000000              0.0010760                                       
 INPUT CARD>  4   1582.0000000              0.0045220                                       
 INPUT CARD>  5    516.1000000              0.0161080                                       
 INPUT CARD>  6    187.2000000              0.0490850                                       
 INPUT CARD>  7     73.9300000              0.1248570                                       
 INPUT CARD>  8     31.2200000              0.2516860                                       
 INPUT CARD>  9     13.8100000              0.3624200                                       
 INPUT CARD> 10      6.2560000              0.2790510                                       
 INPUT CARD>S   10                                                                          
 INPUT CARD>  1 164200.0000000             -0.0000060                                       
 INPUT CARD>  2  24590.0000000             -0.0000460                                       
 INPUT CARD>  3   5592.0000000             -0.0002440                                       
 INPUT CARD>  4   1582.0000000             -0.0010310                                       
 INPUT CARD>  5    516.1000000             -0.0036880                                       
 INPUT CARD>  6    187.2000000             -0.0115140                                       
 INPUT CARD>  7     73.9300000             -0.0304350                                       
 INPUT CARD>  8     31.2200000             -0.0681470                                       
 INPUT CARD>  9     13.8100000             -0.1203680                                       
 INPUT CARD> 10      6.2560000             -0.1482600                                       
 INPUT CARD>S   1                                                                           
 INPUT CARD>  1      2.7760000              1.0000000                                       
 INPUT CARD>S   1                                                                           
 INPUT CARD>  1      1.1380000              1.0000000                                       
 INPUT CARD>S   1                                                                           
 INPUT CARD>  1      0.4600000              1.0000000                                       
 INPUT CARD>S   1                                                                           
 INPUT CARD>  1      0.1829000              1.0000000                                       
 INPUT CARD>S   1                                                                           
 INPUT CARD>  1     15.6450000              1.0000000                                       
 INPUT CARD>S   1                                                                           
 INPUT CARD>  1     35.8740000              1.0000000                                       
 INPUT CARD>S   1                                                                           
 INPUT CARD>  1     82.2590000              1.0000000                                       
 INPUT CARD>S   1                                                                           
 INPUT CARD>  1    188.6200000              1.0000000                                       
 INPUT CARD>P   4                                                                           
 INPUT CARD>  1    195.5000000              0.0009180                                       
 INPUT CARD>  2     46.1600000              0.0073880                                       
  150000000 WORDS OF MEMORY AVAILABLE


     RUN TITLE
     ---------
 A molecule.                                                                     

 THE POINT GROUP OF THE MOLECULE IS DNH     
 THE ORDER OF THE PRINCIPAL AXIS IS     2
 *** WARNING! ATOM   1 SHELL    1 TYPE S HAS NORMALIZATION   1.04493604
 *** WARNING! ATOM   1 SHELL    2 TYPE S HAS NORMALIZATION   2.92060372
 *** WARNING! ATOM   1 SHELL   11 TYPE P HAS NORMALIZATION   6.83491450

 ATOM      ATOMIC                      COORDINATES (BOHR)
           CHARGE         X                   Y                   Z
 O           8.0     0.0000000000        0.0000000000        0.0000000000

          INTERNUCLEAR DISTANCES (ANGS.)
          ------------------------------

                1 O     

   1 O       0.0000000  

  * ... LESS THAN  3.000


     ATOMIC BASIS SET
     ----------------
 THE CONTRACTED PRIMITIVE FUNCTIONS HAVE BEEN UNNORMALIZED
 THE CONTRACTED BASIS FUNCTIONS ARE NOW NORMALIZED TO UNITY

  SHELL TYPE  PRIMITIVE        EXPONENT          CONTRACTION COEFFICIENT(S)

 O         

      1   S       1        164200.0000000    0.000027168337
      1   S       2         24590.0000000    0.000214211889
      1   S       3          5592.0000000    0.001124351181
      1   S       4          1582.0000000    0.004725200782
      1   S       5           516.1000000    0.016831829766
      1   S       6           187.2000000    0.051290685627
      1   S       7            73.9300000    0.130467579410
      1   S       8            31.2200000    0.262995772695
      1   S       9            13.8100000    0.378705720382
      1   S      10             6.2560000    0.291590447488

      2   S      11        164200.0000000   -0.000017523622
      2   S      12         24590.0000000   -0.000134347771
      2   S      13          5592.0000000   -0.000712627307
      2   S      14          1582.0000000   -0.003011142434
      2   S      15           516.1000000   -0.010771186513
      2   S      16           187.2000000   -0.033627831212
      2   S      17            73.9300000   -0.088888574165
      2   S      18            31.2200000   -0.199030381589
      2   S      19            13.8100000   -0.351547228360
      2   S      20             6.2560000   -0.433008707270

      3   S      21             2.7760000    1.000000000000

      4   S      22             1.1380000    1.000000000000

      5   S      23             0.4600000    1.000000000000

      6   S      24             0.1829000    1.000000000000

      7   S      25            15.6450000    1.000000000000

      8   S      26            35.8740000    1.000000000000

      9   S      27            82.2590000    1.000000000000

     10   S      28           188.6200000    1.000000000000

     11   P      29           195.5000000    0.006274451512
     11   P      30            46.1600000    0.050496348334
     11   P      31            14.5800000    0.238934941130
     11   P      32             5.2960000    0.788961015778

     12   P      33             2.0940000    1.000000000000

     13   P      34             0.8471000    1.000000000000

     14   P      35             0.3368000    1.000000000000

     15   P      36             0.1285000    1.000000000000

     16   P      37            14.0490000    1.000000000000

     17   P      38            35.4460000    1.000000000000

     18   P      39            89.4290000    1.000000000000

     19   P      40           225.6300000    1.000000000000

     20   D      41             5.8790000    1.000000000000

     21   D      42             2.3070000    1.000000000000

     22   D      43             0.9050000    1.000000000000

     23   D      44             0.3550000    1.000000000000

     24   D      45            16.7030000    1.000000000000

     25   D      46            47.3200000    1.000000000000

     26   D      47           134.0560000    1.000000000000

     27   F      48             4.0160000    1.000000000000

     28   F      49             1.5540000    1.000000000000

     29   F      50             0.6010000    1.000000000000

     30   F      51            17.3540000    1.000000000000

     31   F      52            65.5460000    1.000000000000

     32   G      53             3.3500000    1.000000000000

     33   G      54             1.1890000    1.000000000000

     34   G      55            48.5780000    1.000000000000

 TOTAL NUMBER OF BASIS SET SHELLS             =   34
 NUMBER OF CARTESIAN GAUSSIAN BASIS FUNCTIONS =  174
 NOTE: THIS RUN WILL RESTRICT THE MO VARIATION SPACE TO SPHERICAL HARMONICS.
 THE NUMBER OF ORBITALS KEPT IN THE VARIATIONAL SPACE WILL BE PRINTED LATER.
 NUMBER OF ELECTRONS                          =    8
 CHARGE OF MOLECULE                           =    0
 SPIN MULTIPLICITY                            =    3
 NUMBER OF OCCUPIED ORBITALS (ALPHA)          =    5
 NUMBER OF OCCUPIED ORBITALS (BETA )          =    3
 TOTAL NUMBER OF ATOMS                        =    1
 THE NUCLEAR REPULSION ENERGY IS        0.0000000000

 THIS MOLECULE IS RECOGNIZED AS BEING LINEAR,
 ORBITAL LZ DEGENERACY TOLERANCE ETOLLZ= 1.00E-06

     $CONTRL OPTIONS
     ---------------
 SCFTYP=UHF          RUNTYP=ENERGY       EXETYP=RUN     
 MPLEVL=       0     CITYP =NONE         CCTYP =NONE         VBTYP =NONE    
 DFTTYP=NONE         TDDFT =NONE    
 MULT  =       3     ICHARG=       0     NZVAR =       0     COORD =UNIQUE  
 PP    =NONE         RELWFN=NONE         LOCAL =NONE         NUMGRD=       F
 ISPHER=       1     NOSYM =       1     MAXIT =     200     UNITS =ANGS    
 PLTORB=       F     MOLPLT=       F     AIMPAC=       F     FRIEND=        
 NPRINT=       7     IREST =       0     GEOM  =INPUT   
 NORMF =       0     NORMP =       0     ITOL  =      20     ICUT  =       9
 INTTYP=BEST         GRDTYP=BEST         QMTTOL= 1.0E-06

     $SYSTEM OPTIONS
     ---------------
  REPLICATED MEMORY=   150000000 WORDS (ON EVERY NODE).
 DISTRIBUTED MEMDDI=           0 MILLION WORDS IN AGGREGATE,
 MEMDDI DISTRIBUTED OVER   1 PROCESSORS IS           0 WORDS/PROCESSOR.
 TOTAL MEMORY REQUESTED ON EACH PROCESSOR=   150000000 WORDS.
 TIMLIM=      525600.00 MINUTES, OR     365.0 DAYS.
 PARALL= F  BALTYP=  DLB     KDIAG=    0  COREFL= F
 MXSEQ2=     300 MXSEQ3=     150  mem10=         0

          ----------------
          PROPERTIES INPUT
          ----------------

     MOMENTS            FIELD           POTENTIAL          DENSITY
 IEMOM =       1   IEFLD =       0   IEPOT =       0   IEDEN =       0
 WHERE =COMASS     WHERE =NUCLEI     WHERE =NUCLEI     WHERE =NUCLEI  
 OUTPUT=BOTH       OUTPUT=BOTH       OUTPUT=BOTH       OUTPUT=BOTH    
 IEMINT=       0   IEFINT=       0                     IEDINT=       0
                                                       MORB  =       0
          EXTRAPOLATION IN EFFECT
          SOSCF IN EFFECT
          DIIS or SOSCF will be reset if energy rises
 ORBITAL PRINTING OPTION: NPREO=     1   174     2     1

     -------------------------------
     INTEGRAL TRANSFORMATION OPTIONS
     -------------------------------
     NWORD  =            0
     CUTOFF = 1.0E-09     MPTRAN =       0
     DIRTRF =       F     AOINTS =DUP     

          ----------------------
          INTEGRAL INPUT OPTIONS
          ----------------------
 NOPK  =       1 NORDER=       0 SCHWRZ=       F

     ------------------------------------------
     THE POINT GROUP IS C1 , NAXIS= 1, ORDER= 1
     ------------------------------------------

 -- VARIATIONAL SPACE WILL BE RESTRICTED TO PURE SPHERICAL HARMONICS ONLY --
 AFTER EXCLUDING CONTAMINANT COMBINATIONS FROM THE CARTESIAN GAUSSIAN BASIS
 SET, THE NUMBER OF SPHERICAL HARMONICS KEPT IN THE VARIATION SPACE IS  134

     DIMENSIONS OF THE SYMMETRY SUBSPACES ARE
 A   =  134

 ..... DONE SETTING UP THE RUN .....
 STEP CPU TIME =     0.01 TOTAL CPU TIME =        0.0 (    0.0 MIN)
 TOTAL WALL CLOCK TIME=        0.0 SECONDS, CPU UTILIZATION IS  50.00%

          ********************
          1 ELECTRON INTEGRALS
          ********************
 ...... END OF ONE-ELECTRON INTEGRALS ......
 STEP CPU TIME =     0.00 TOTAL CPU TIME =        0.0 (    0.0 MIN)
 TOTAL WALL CLOCK TIME=        0.0 SECONDS, CPU UTILIZATION IS  50.00%

          -------------
          GUESS OPTIONS
          -------------
          GUESS =HUCKEL            NORB  =       0          NORDER=       0
          MIX   =       F          PRTMO =       F          PUNMO =       F
          TOLZ  = 1.0E-08          TOLE  = 1.0E-05
          SYMDEN=       F          PURIFY=       F

 INITIAL GUESS ORBITALS GENERATED BY HUCKEL   ROUTINE.
 HUCKEL GUESS REQUIRES    215989 WORDS.

 STATISTICS FOR GENERATION OF SYMMETRY ORBITAL -Q- MATRIX
 NUMBER OF CARTESIAN ATOMIC ORBITALS=        174
 NUMBER OF SPHERICAL CONTAMINANTS DROPPED=    40
 NUMBER OF LINEARLY DEPENDENT MOS DROPPED=     0
 TOTAL NUMBER OF MOS IN VARIATION SPACE=     134

 SYMMETRIES FOR INITIAL GUESS ORBITALS FOLLOW.  ALPHA SET(S).
     5 ORBITALS ARE OCCUPIED (    1 CORE ORBITALS).
     2=A        3=A        4=A        5=A        6=A        7=A        8=A   
     9=A       10=A       11=A       12=A       13=A       14=A       15=A   

 SYMMETRIES FOR INITIAL GUESS ORBITALS FOLLOW.   BETA SET(S).
     3 ORBITALS ARE OCCUPIED (    1 CORE ORBITALS).
     2=A        3=A        4=A        5=A        6=A        7=A        8=A   
     9=A       10=A       11=A       12=A       13=A   
 ...... END OF INITIAL ORBITAL SELECTION ......
 STEP CPU TIME =     0.02 TOTAL CPU TIME =        0.0 (    0.0 MIN)
 TOTAL WALL CLOCK TIME=        0.0 SECONDS, CPU UTILIZATION IS  75.00%

                    ----------------------
                    AO INTEGRAL TECHNOLOGY
                    ----------------------
     S,P,L SHELL ROTATED AXIS INTEGRALS, REPROGRAMMED BY
        KAZUYA ISHIMURA (IMS) AND JOSE SIERRA (SYNSTAR).
     S,P,D,L SHELL ROTATED AXIS INTEGRALS PROGRAMMED BY
        KAZUYA ISHIMURA (INSTITUTE FOR MOLECULAR SCIENCE).
     S,P,D,F,G SHELL TO TOTAL QUARTET ANGULAR MOMENTUM SUM 5,
        ERIC PROGRAM BY GRAHAM FLETCHER (ELORET AND NASA ADVANCED
        SUPERCOMPUTING DIVISION, AMES RESEARCH CENTER).
     S,P,D,F,G,L SHELL GENERAL RYS QUADRATURE PROGRAMMED BY
        MICHEL DUPUIS (PACIFIC NORTHWEST NATIONAL LABORATORY).

          --------------------
          2 ELECTRON INTEGRALS
          --------------------

 THE -PK- OPTION IS OFF, THE INTEGRALS ARE NOT IN SUPERMATRIX FORM.
 STORING   15000 INTEGRALS/RECORD ON DISK, USING 12 BYTES/INTEGRAL.
 TWO ELECTRON INTEGRAL EVALUATION REQUIRES  140320 WORDS OF MEMORY.
 II,JST,KST,LST =  1  1  1  1 NREC =         1 INTLOC =    1
 II,JST,KST,LST =  2  1  1  1 NREC =         1 INTLOC =    2
 II,JST,KST,LST =  3  1  1  1 NREC =         1 INTLOC =    7
 II,JST,KST,LST =  4  1  1  1 NREC =         1 INTLOC =   22
 II,JST,KST,LST =  5  1  1  1 NREC =         1 INTLOC =   56
 II,JST,KST,LST =  6  1  1  1 NREC =         1 INTLOC =  121
 II,JST,KST,LST =  7  1  1  1 NREC =         1 INTLOC =  232
 II,JST,KST,LST =  8  1  1  1 NREC =         1 INTLOC =  407
 II,JST,KST,LST =  9  1  1  1 NREC =         1 INTLOC =  667
 II,JST,KST,LST = 10  1  1  1 NREC =         1 INTLOC = 1036
 II,JST,KST,LST = 11  1  1  1 NREC =         1 INTLOC = 1541
 II,JST,KST,LST = 12  1  1  1 NREC =         1 INTLOC = 1880
 II,JST,KST,LST = 13  1  1  1 NREC =         1 INTLOC = 2741
 II,JST,KST,LST = 14  1  1  1 NREC =         1 INTLOC = 4232
 II,JST,KST,LST = 15  1  1  1 NREC =         1 INTLOC = 6524
 II,JST,KST,LST = 16  1  1  1 NREC =         1 INTLOC = 9851
 II,JST,KST,LST = 17  1  1  1 NREC =         1 INTLOC =14510
 II,JST,KST,LST = 18  1  1  1 NREC =         2 INTLOC = 5861
 II,JST,KST,LST = 19  1  1  1 NREC =         2 INTLOC =14327
 II,JST,KST,LST = 20  1  1  1 NREC =         3 INTLOC =10394
 II,JST,KST,LST = 21  1  1  1 NREC =         5 INTLOC = 7934
 II,JST,KST,LST = 22  1  1  1 NREC =         8 INTLOC = 5405
 II,JST,KST,LST = 23  1  1  1 NREC =        12 INTLOC = 6227
 II,JST,KST,LST = 24  1  1  1 NREC =        17 INTLOC =14819
 II,JST,KST,LST = 25  1  1  1 NREC =        25 INTLOC = 6635
 II,JST,KST,LST = 26  1  1  1 NREC =        35 INTLOC = 3110
 II,JST,KST,LST = 27  1  1  1 NREC =        47 INTLOC =11696
 II,JST,KST,LST = 28  1  1  1 NREC =        73 INTLOC =10091
 II,JST,KST,LST = 29  1  1  1 NREC =       110 INTLOC = 2399
 II,JST,KST,LST = 30  1  1  1 NREC =       159 INTLOC = 4828
 II,JST,KST,LST = 31  1  1  1 NREC =       223 INTLOC =13807
 II,JST,KST,LST = 32  1  1  1 NREC =       307 INTLOC =  436
 II,JST,KST,LST = 33  1  1  1 NREC =       471 INTLOC = 7975
 II,JST,KST,LST = 34  1  1  1 NREC =       695 INTLOC = 3433
 TOTAL NUMBER OF NONZERO TWO-ELECTRON INTEGRALS =            14875548
        992 INTEGRAL RECORDS WERE STORED ON DISK FILE  8.
  ...... END OF TWO-ELECTRON INTEGRALS .....
 STEP CPU TIME =     2.47 TOTAL CPU TIME =        2.5 (    0.0 MIN)
 TOTAL WALL CLOCK TIME=        2.5 SECONDS, CPU UTILIZATION IS 100.00%

          ---------------------------
                  UHF SCF CALCULATION
          ---------------------------

     NUCLEAR ENERGY =         0.0000000000
     MAXIT =200     NPUNCH=  2     MULT=  3
     EXTRAP=T  DAMP=F  SHIFT=F  RSTRCT=F  DIIS=F  SOSCF=T
     DENSITY MATRIX CONV=  1.00E-05
     SOSCF WILL OPTIMIZE     645 ALPHA AND     393 BETA ROTATION ANGLES.
     SOGTOL= 2.500E-01
     MEMORY REQUIRED FOR UHF/ROHF ITERS=    342810 WORDS.

 ITER EX      TOTAL ENERGY        E CHANGE  DENSITY CHANGE    ORB. GRAD 
   1  0      -74.6017649825   -74.6017649825   1.805920806   0.000000000
          ---------------START SECOND ORDER SCF---------------
   2  1      -74.8162227959    -0.2144578133   0.053342448   0.028978734
   3  2      -74.8184365067    -0.0022137108   0.012526624   0.008276430
   4  3      -74.8187453148    -0.0003088081   0.003818696   0.003144570
   5  4      -74.8187810084    -0.0000356936   0.001848739   0.001566445
   6  5      -74.8187874404    -0.0000064321   0.000214721   0.000266563
   7  6      -74.8187876884    -0.0000002480   0.000094446   0.000105168
   8  7      -74.8187877239    -0.0000000355   0.000026455   0.000019693
   9  8      -74.8187877250    -0.0000000011   0.000003572   0.000003951
  10  9      -74.8187877250    -0.0000000000   0.000000686   0.000000473

          -----------------
          DENSITY CONVERGED
          -----------------
     TIME TO FORM FOCK OPERATORS=       2.2 SECONDS (       0.2 SEC/ITER)
     TIME TO SOLVE SCF EQUATIONS=       0.1 SECONDS (       0.0 SEC/ITER)

 FINAL UHF ENERGY IS      -74.8187877250 AFTER  10 ITERATIONS

          --------------------
          SPIN SZ   =    1.000
          S-SQUARED =    2.009
          --------------------

 LZ VALUE ANALYSIS FOR THE MOS
 ----------------------------------------
 MO     1 (    1) HAS LZ(WEIGHT)= 0.00(100.0%) 
 MO     2 (    2) HAS LZ(WEIGHT)= 0.00(100.0%) 
 MO     3 (    3) HAS LZ(WEIGHT)= 0.00(100.0%) 
 MO     4 (    3) HAS LZ(WEIGHT)= 0.00(100.0%) 
 MO     5 (    4) HAS LZ(WEIGHT)= 0.00(100.0%) 
 MO     6 (    5) HAS LZ(WEIGHT)= 0.00(100.0%) 
 MO     7 (    5) HAS LZ(WEIGHT)= 0.00(100.0%) 
 MO     8 (    6) HAS LZ(WEIGHT)= 0.00(100.0%) 
 MO     9 (    7) HAS LZ(WEIGHT)= 0.00(100.0%) 
 MO    10 (    8) HAS LZ(WEIGHT)= 0.00(100.0%) 
 MO    11 (    8) HAS LZ(WEIGHT)= 0.00(100.0%) 
 MO    12 (    9) HAS LZ(WEIGHT)= 0.00(100.0%) 
 MO    13 (    9) HAS LZ(WEIGHT)= 0.00(100.0%) 
 MO    14 (   10) HAS LZ(WEIGHT)= 0.00(100.0%) 
 MO    15 (   11) HAS LZ(WEIGHT)= 0.00(100.0%) 
 MO    16 (   11) HAS LZ(WEIGHT)= 0.00(100.0%) 
 MO    17 (   12) HAS LZ(WEIGHT)= 0.00(100.0%) 
 MO    18 (   13) HAS LZ(WEIGHT)= 0.00(100.0%) 
 MO    19 (   13) HAS LZ(WEIGHT)= 0.00(100.0%) 
 MO    20 (   14) HAS LZ(WEIGHT)= 0.00(100.0%) 
 MO    21 (   14) HAS LZ(WEIGHT)= 0.00(100.0%) 
 MO    22 (   15) HAS LZ(WEIGHT)= 0.00(100.0%) 
 MO    23 (   15) HAS LZ(WEIGHT)= 0.00(100.0%) 
 MO    24 (   16) HAS LZ(WEIGHT)= 0.00(100.0%) 
 MO    25 (   17) HAS LZ(WEIGHT)= 0.00(100.0%) 
 MO    26 (   18) HAS LZ(WEIGHT)= 0.00(100.0%) 
 MO    27 (   18) HAS LZ(WEIGHT)= 0.00(100.0%) 
 MO    28 (   19) HAS LZ(WEIGHT)= 0.00(100.0%) 
 MO    29 (   19) HAS LZ(WEIGHT)= 0.00(100.0%) 
 MO    30 (   20) HAS LZ(WEIGHT)= 0.00(100.0%) 
 MO    31 (   21) HAS LZ(WEIGHT)= 0.00(100.0%) 
 MO    32 (   21) HAS LZ(WEIGHT)= 0.00(100.0%) 
 MO    33 (   22) HAS LZ(WEIGHT)= 0.00(100.0%) 
 MO    34 (   23) HAS LZ(WEIGHT)= 0.00(100.0%) 
 MO    35 (   23) HAS LZ(WEIGHT)= 0.00(100.0%) 
 MO    36 (   24) HAS LZ(WEIGHT)= 0.00(100.0%) 
 MO    37 (   24) HAS LZ(WEIGHT)= 0.00(100.0%) 
 MO    38 (   25) HAS LZ(WEIGHT)= 0.00(100.0%) 
 MO    39 (   25) HAS LZ(WEIGHT)= 0.00(100.0%) 
 MO    40 (   26) HAS LZ(WEIGHT)= 0.00(100.0%) 
 MO    41 (   26) HAS LZ(WEIGHT)= 0.00(100.0%) 
 MO    42 (   27) HAS LZ(WEIGHT)= 0.00(100.0%) 
 MO    43 (   28) HAS LZ(WEIGHT)= 0.00(100.0%) 
 MO    44 (   28) HAS LZ(WEIGHT)= 0.00(100.0%) 
 MO    45 (   29) HAS LZ(WEIGHT)= 0.00(100.0%) 
 MO    46 (   29) HAS LZ(WEIGHT)= 0.00(100.0%) 
 MO    47 (   30) HAS LZ(WEIGHT)= 0.00(100.0%) 
 MO    48 (   30) HAS LZ(WEIGHT)= 0.00(100.0%) 
 MO    49 (   31) HAS LZ(WEIGHT)= 0.00(100.0%) 
 MO    50 (   32) HAS LZ(WEIGHT)= 0.00(100.0%) 
 MO    51 (   32) HAS LZ(WEIGHT)= 0.00(100.0%) 
 MO    52 (   33) HAS LZ(WEIGHT)= 0.00(100.0%) 
 MO    53 (   33) HAS LZ(WEIGHT)= 0.00(100.0%) 
 MO    54 (   34) HAS LZ(WEIGHT)= 0.00(100.0%) 
 MO    55 (   35) HAS LZ(WEIGHT)= 0.00(100.0%) 
 MO    56 (   36) HAS LZ(WEIGHT)= 0.00(100.0%) 
 MO    57 (   36) HAS LZ(WEIGHT)= 0.00(100.0%) 
 MO    58 (   37) HAS LZ(WEIGHT)= 0.00(100.0%) 
 MO    59 (   38) HAS LZ(WEIGHT)= 0.00(100.0%) 
 MO    60 (   38) HAS LZ(WEIGHT)= 0.00(100.0%) 
 MO    61 (   39) HAS LZ(WEIGHT)= 0.00(100.0%) 
 MO    62 (   39) HAS LZ(WEIGHT)= 0.00(100.0%) 
 MO    63 (   40) HAS LZ(WEIGHT)= 0.00(100.0%) 
 MO    64 (   40) HAS LZ(WEIGHT)= 0.00(100.0%) 
 MO    65 (   41) HAS LZ(WEIGHT)= 0.00(100.0%) 
 MO    66 (   41) HAS LZ(WEIGHT)= 0.00(100.0%) 
 MO    67 (   42) HAS LZ(WEIGHT)= 0.00(100.0%) 
 MO    68 (   43) HAS LZ(WEIGHT)= 0.00(100.0%) 
 MO    69 (   43) HAS LZ(WEIGHT)= 0.00(100.0%) 
 MO    70 (   44) HAS LZ(WEIGHT)= 0.00(100.0%) 
 MO    71 (   44) HAS LZ(WEIGHT)= 0.00(100.0%) 
 MO    72 (   45) HAS LZ(WEIGHT)= 0.00(100.0%) 
 MO    73 (   45) HAS LZ(WEIGHT)= 0.00(100.0%) 
 MO    74 (   46) HAS LZ(WEIGHT)= 0.00(100.0%) 
 MO    75 (   47) HAS LZ(WEIGHT)= 0.00(100.0%) 
 MO    76 (   47) HAS LZ(WEIGHT)= 0.00(100.0%) 
 MO    77 (   48) HAS LZ(WEIGHT)= 0.00(100.0%) 
 MO    78 (   48) HAS LZ(WEIGHT)= 0.00(100.0%) 
 MO    79 (   49) HAS LZ(WEIGHT)= 0.00(100.0%) 
 MO    80 (   50) HAS LZ(WEIGHT)= 0.00(100.0%) 
 MO    81 (   51) HAS LZ(WEIGHT)= 0.00(100.0%) 
 MO    82 (   51) HAS LZ(WEIGHT)= 0.00(100.0%) 
 MO    83 (   52) HAS LZ(WEIGHT)= 0.00(100.0%) 
 MO    84 (   53) HAS LZ(WEIGHT)= 0.00(100.0%) 
 MO    85 (   53) HAS LZ(WEIGHT)= 0.00(100.0%) 
 MO    86 (   54) HAS LZ(WEIGHT)= 0.00(100.0%) 
 MO    87 (   54) HAS LZ(WEIGHT)= 0.00(100.0%) 
 MO    88 (   55) HAS LZ(WEIGHT)= 0.00(100.0%) 
 MO    89 (   56) HAS LZ(WEIGHT)= 0.00(100.0%) 
 MO    90 (   56) HAS LZ(WEIGHT)= 0.00(100.0%) 
 MO    91 (   57) HAS LZ(WEIGHT)= 0.00(100.0%) 
 MO    92 (   57) HAS LZ(WEIGHT)= 0.00(100.0%) 
 MO    93 (   58) HAS LZ(WEIGHT)=-0.00( 50.0%)  0.00( 50.0%) 
 MO    94 (   58) HAS LZ(WEIGHT)=-0.00( 50.0%)  0.00( 50.0%) 
 MO    95 (   59) HAS LZ(WEIGHT)= 0.00(100.0%) 
 MO    96 (   60) HAS LZ(WEIGHT)= 0.00(100.0%) 
 MO    97 (   61) HAS LZ(WEIGHT)=-0.00( 50.0%)  0.00( 50.0%) 
 MO    98 (   61) HAS LZ(WEIGHT)=-0.00( 50.0%)  0.00( 50.0%) 
 MO    99 (   62) HAS LZ(WEIGHT)= 0.00(100.0%) 
 MO   100 (   63) HAS LZ(WEIGHT)= 0.00(100.0%) 
 MO   101 (   63) HAS LZ(WEIGHT)= 0.00(100.0%) 
 MO   102 (   64) HAS LZ(WEIGHT)=-0.00( 50.0%)  0.00( 50.0%) 
 MO   103 (   64) HAS LZ(WEIGHT)=-0.00( 50.0%)  0.00( 50.0%) 
 MO   104 (   65) HAS LZ(WEIGHT)= 0.00(100.0%) 
 MO   105 (   66) HAS LZ(WEIGHT)= 0.00(100.0%) 
 MO   106 (   67) HAS LZ(WEIGHT)= 0.00(100.0%) 
 MO   107 (   67) HAS LZ(WEIGHT)= 0.00(100.0%) 
 MO   108 (   68) HAS LZ(WEIGHT)=-0.00( 50.0%)  0.00( 50.0%) 
 MO   109 (   68) HAS LZ(WEIGHT)=-0.00( 50.0%)  0.00( 50.0%) 
 MO   110 (   69) HAS LZ(WEIGHT)=-0.00( 50.0%)  0.00( 50.0%) 
 MO   111 (   69) HAS LZ(WEIGHT)=-0.00( 50.0%)  0.00( 50.0%) 
 MO   112 (   70) HAS LZ(WEIGHT)=-0.00( 50.0%)  0.00( 50.0%) 
 MO   113 (   70) HAS LZ(WEIGHT)=-0.00( 50.0%)  0.00( 50.0%) 
 MO   114 (   71) HAS LZ(WEIGHT)= 0.00(100.0%) 
 MO   115 (   72) HAS LZ(WEIGHT)=-0.00( 50.0%)  0.00( 50.0%) 
 MO   116 (   72) HAS LZ(WEIGHT)=-0.00( 50.0%)  0.00( 50.0%) 
 MO   117 (   73) HAS LZ(WEIGHT)=-0.00( 50.0%)  0.00( 50.0%) 
 MO   118 (   73) HAS LZ(WEIGHT)=-0.00( 50.0%)  0.00( 50.0%) 
 MO   119 (   74) HAS LZ(WEIGHT)=-0.00( 50.0%)  0.00( 50.0%) 
 MO   120 (   74) HAS LZ(WEIGHT)=-0.00( 50.0%)  0.00( 50.0%) 
 MO   121 (   75) HAS LZ(WEIGHT)= 0.00(100.0%) 
 MO   122 (   76) HAS LZ(WEIGHT)=-0.00( 50.0%)  0.00( 50.0%) 
 MO   123 (   76) HAS LZ(WEIGHT)=-0.00( 50.0%)  0.00( 50.0%) 
 MO   124 (   77) HAS LZ(WEIGHT)= 0.00(100.0%) 
 MO   125 (   78) HAS LZ(WEIGHT)=-0.00( 50.0%)  0.00( 50.0%) 
 MO   126 (   78) HAS LZ(WEIGHT)=-0.00( 50.0%)  0.00( 50.0%) 
 MO   127 (   79) HAS LZ(WEIGHT)=-0.00( 50.0%)  0.00( 50.0%) 
 MO   128 (   79) HAS LZ(WEIGHT)=-0.00( 50.0%)  0.00( 50.0%) 
 MO   129 (   80) HAS LZ(WEIGHT)= 0.00(100.0%) 
 MO   130 (   81) HAS LZ(WEIGHT)= 0.00(100.0%) 
 MO   131 (   82) HAS LZ(WEIGHT)=-0.00( 50.0%)  0.00( 50.0%) 
 MO   132 (   82) HAS LZ(WEIGHT)=-0.00( 50.0%)  0.00( 50.0%) 
 MO   133 (   83) HAS LZ(WEIGHT)= 0.00(100.0%) 
 MO   134 (   84) HAS LZ(WEIGHT)= 0.00(100.0%) 

  ----- ALPHA SET ----- 

          ------------
          EIGENVECTORS
          ------------

                      1          2          3          4          5
                  -20.7071    -1.4180    -0.7107    -0.7107    -0.6113
                     A          A          A          A          A   
    1  O  1  S    0.955471  -0.000625   0.000000  -0.000000   0.000000
    2  O  1  S   -0.000387   0.351248   0.000000  -0.000000   0.000000
    3  O  1  S    0.065114   0.008344   0.000000  -0.000000   0.000000
    4  O  1  S    0.002177   0.406453   0.000000  -0.000000   0.000000
    5  O  1  S    0.001439   0.547964   0.000000  -0.000000   0.000000
    6  O  1  S    0.000004   0.168804   0.000000  -0.000000   0.000000
    7  O  1  S   -0.000458   0.000200   0.000000  -0.000000   0.000000
    8  O  1  S   -0.000052   0.000148   0.000000  -0.000000   0.000000
    9  O  1  S   -0.000024  -0.000012   0.000000  -0.000000   0.000000
   10  O  1  S    0.000006   0.000018   0.000000  -0.000000   0.000000
   11  O  1  X   -0.000000  -0.000000   0.000000  -0.000000   0.146654
   12  O  1  Y   -0.000000  -0.000000   0.137741   0.057002   0.000000
   13  O  1  Z   -0.000000  -0.000000  -0.057002   0.137741   0.000000
   14  O  1  X   -0.000000  -0.000000   0.000000  -0.000000   0.257782
   15  O  1  Y   -0.000000  -0.000000   0.244983   0.101382   0.000000
   16  O  1  Z   -0.000000  -0.000000  -0.101382   0.244983   0.000000
   17  O  1  X   -0.000000  -0.000000   0.000000  -0.000000   0.373223
   18  O  1  Y   -0.000000  -0.000000   0.358464   0.148345   0.000000
   19  O  1  Z   -0.000000  -0.000000  -0.148345   0.358464   0.000000
   20  O  1  X   -0.000000  -0.000000   0.000000  -0.000000   0.340176
   21  O  1  Y   -0.000000  -0.000000   0.310656   0.128560   0.000000
   22  O  1  Z   -0.000000  -0.000000  -0.128560   0.310656   0.000000
   23  O  1  X   -0.000000  -0.000000   0.000000  -0.000000   0.133877
   24  O  1  Y   -0.000000  -0.000000   0.094585   0.039142   0.000000
   25  O  1  Z   -0.000000  -0.000000  -0.039142   0.094585   0.000000
   26  O  1  X   -0.000000  -0.000000   0.000000  -0.000000   0.000059
   27  O  1  Y   -0.000000  -0.000000   0.000102   0.000042   0.000000
   28  O  1  Z   -0.000000  -0.000000  -0.000042   0.000102   0.000000
   29  O  1  X   -0.000000  -0.000000   0.000000  -0.000000  -0.000049
   30  O  1  Y   -0.000000  -0.000000  -0.000028  -0.000011   0.000000
   31  O  1  Z   -0.000000  -0.000000   0.000011  -0.000028   0.000000
   32  O  1  X   -0.000000  -0.000000   0.000000  -0.000000   0.000037
   33  O  1  Y   -0.000000  -0.000000   0.000041   0.000017   0.000000
   34  O  1  Z   -0.000000  -0.000000  -0.000017   0.000041   0.000000
   35  O  1  X   -0.000000  -0.000000   0.000000  -0.000000  -0.000010
   36  O  1  Y   -0.000000  -0.000000  -0.000008  -0.000003   0.000000
   37  O  1  Z   -0.000000  -0.000000   0.000003  -0.000008   0.000000
   38  O  1 XX   -0.000526  -0.000489   0.000000  -0.000000   0.000000
   39  O  1 YY    0.000263   0.000245   0.000000  -0.000000   0.000000
   40  O  1 ZZ    0.000263   0.000245   0.000000  -0.000000   0.000000
   41  O  1 XY   -0.000000  -0.000000   0.000000  -0.000000   0.000000
   42  O  1 XZ   -0.000000  -0.000000   0.000000  -0.000000   0.000000
   43  O  1 YZ   -0.000000  -0.000000   0.000000  -0.000000   0.000000
   44  O  1 XX   -0.000127  -0.005835   0.000000  -0.000000   0.000000
   45  O  1 YY    0.000063   0.002917   0.000000  -0.000000   0.000000
   46  O  1 ZZ    0.000063   0.002917   0.000000  -0.000000   0.000000
   47  O  1 XY   -0.000000  -0.000000   0.000000  -0.000000   0.000000
   48  O  1 XZ   -0.000000  -0.000000   0.000000  -0.000000   0.000000
   49  O  1 YZ   -0.000000  -0.000000   0.000000  -0.000000   0.000000
   50  O  1 XX   -0.000032  -0.013309   0.000000  -0.000000   0.000000
   51  O  1 YY    0.000016   0.006655   0.000000  -0.000000   0.000000
   52  O  1 ZZ    0.000016   0.006655   0.000000  -0.000000   0.000000
   53  O  1 XY   -0.000000  -0.000000   0.000000  -0.000000   0.000000
   54  O  1 XZ   -0.000000  -0.000000   0.000000  -0.000000   0.000000
   55  O  1 YZ   -0.000000  -0.000000   0.000000  -0.000000   0.000000
   56  O  1 XX    0.000007  -0.006083   0.000000  -0.000000   0.000000
   57  O  1 YY   -0.000004   0.003041   0.000000  -0.000000   0.000000
   58  O  1 ZZ   -0.000004   0.003041   0.000000  -0.000000   0.000000
   59  O  1 XY   -0.000000  -0.000000   0.000000  -0.000000   0.000000
   60  O  1 XZ   -0.000000  -0.000000   0.000000  -0.000000   0.000000
   61  O  1 YZ   -0.000000  -0.000000   0.000000  -0.000000   0.000000
   62  O  1 XX   -0.000244  -0.000012   0.000000  -0.000000   0.000000
   63  O  1 YY    0.000122   0.000006   0.000000  -0.000000   0.000000
   64  O  1 ZZ    0.000122   0.000006   0.000000  -0.000000   0.000000
   65  O  1 XY   -0.000000  -0.000000   0.000000  -0.000000   0.000000
   66  O  1 XZ   -0.000000  -0.000000   0.000000  -0.000000   0.000000
   67  O  1 YZ   -0.000000  -0.000000   0.000000  -0.000000   0.000000
   68  O  1 XX   -0.000015  -0.000003   0.000000  -0.000000   0.000000
   69  O  1 YY    0.000007   0.000001   0.000000  -0.000000   0.000000
   70  O  1 ZZ    0.000007   0.000001   0.000000  -0.000000   0.000000
   71  O  1 XY   -0.000000  -0.000000   0.000000  -0.000000   0.000000
   72  O  1 XZ   -0.000000  -0.000000   0.000000  -0.000000   0.000000
   73  O  1 YZ   -0.000000  -0.000000   0.000000  -0.000000   0.000000
   74  O  1 XX   -0.000003  -0.000001   0.000000  -0.000000   0.000000
   75  O  1 YY    0.000001   0.000000   0.000000  -0.000000   0.000000
   76  O  1 ZZ    0.000001   0.000000   0.000000  -0.000000   0.000000
   77  O  1 XY   -0.000000  -0.000000   0.000000  -0.000000   0.000000
   78  O  1 XZ   -0.000000  -0.000000   0.000000  -0.000000   0.000000
   79  O  1 YZ   -0.000000  -0.000000   0.000000  -0.000000   0.000000
   80  O  1 XXX  -0.000000  -0.000000   0.000000  -0.000000  -0.001564
   81  O  1 YYY  -0.000000  -0.000000   0.000726   0.000300   0.000000
   82  O  1 ZZZ  -0.000000  -0.000000  -0.000300   0.000726   0.000000
   83  O  1 XXY  -0.000000  -0.000000  -0.001298  -0.000537   0.000000
   84  O  1 XXZ  -0.000000  -0.000000   0.000537  -0.001298   0.000000
   85  O  1 YYX  -0.000000  -0.000000   0.000000  -0.000000   0.001049
   86  O  1 YYZ  -0.000000  -0.000000  -0.000134   0.000325   0.000000
   87  O  1 ZZX  -0.000000  -0.000000   0.000000  -0.000000   0.001049
   88  O  1 ZZY  -0.000000  -0.000000   0.000325   0.000134   0.000000
   89  O  1 XYZ  -0.000000  -0.000000   0.000000  -0.000000   0.000000
   90  O  1 XXX  -0.000000  -0.000000   0.000000  -0.000000  -0.004761
   91  O  1 YYY  -0.000000  -0.000000   0.002261   0.000936   0.000000
   92  O  1 ZZZ  -0.000000  -0.000000  -0.000936   0.002261   0.000000
   93  O  1 XXY  -0.000000  -0.000000  -0.004045  -0.001674   0.000000
   94  O  1 XXZ  -0.000000  -0.000000   0.001674  -0.004045   0.000000
   95  O  1 YYX  -0.000000  -0.000000   0.000000  -0.000000   0.003193
   96  O  1 YYZ  -0.000000  -0.000000  -0.000418   0.001011   0.000000
   97  O  1 ZZX  -0.000000  -0.000000   0.000000  -0.000000   0.003193
   98  O  1 ZZY  -0.000000  -0.000000   0.001011   0.000418   0.000000
   99  O  1 XYZ  -0.000000  -0.000000   0.000000  -0.000000   0.000000
  100  O  1 XXX  -0.000000  -0.000000   0.000000  -0.000000  -0.008546
  101  O  1 YYY  -0.000000  -0.000000   0.003681   0.001524   0.000000
  102  O  1 ZZZ  -0.000000  -0.000000  -0.001524   0.003681   0.000000
  103  O  1 XXY  -0.000000  -0.000000  -0.006586  -0.002725   0.000000
  104  O  1 XXZ  -0.000000  -0.000000   0.002725  -0.006586   0.000000
  105  O  1 YYX  -0.000000  -0.000000   0.000000  -0.000000   0.005733
  106  O  1 YYZ  -0.000000  -0.000000  -0.000681   0.001646   0.000000
  107  O  1 ZZX  -0.000000  -0.000000   0.000000  -0.000000   0.005733
  108  O  1 ZZY  -0.000000  -0.000000   0.001646   0.000681   0.000000
  109  O  1 XYZ  -0.000000  -0.000000   0.000000  -0.000000   0.000000
  110  O  1 XXX  -0.000000  -0.000000   0.000000  -0.000000  -0.000076
  111  O  1 YYY  -0.000000  -0.000000   0.000037   0.000015   0.000000
  112  O  1 ZZZ  -0.000000  -0.000000  -0.000015   0.000037   0.000000
  113  O  1 XXY  -0.000000  -0.000000  -0.000066  -0.000027   0.000000
  114  O  1 XXZ  -0.000000  -0.000000   0.000027  -0.000066   0.000000
  115  O  1 YYX  -0.000000  -0.000000   0.000000  -0.000000   0.000051
  116  O  1 YYZ  -0.000000  -0.000000  -0.000007   0.000016   0.000000
  117  O  1 ZZX  -0.000000  -0.000000   0.000000  -0.000000   0.000051
  118  O  1 ZZY  -0.000000  -0.000000   0.000016   0.000007   0.000000
  119  O  1 XYZ  -0.000000  -0.000000   0.000000  -0.000000   0.000000
  120  O  1 XXX  -0.000000  -0.000000   0.000000  -0.000000   0.000003
  121  O  1 YYY  -0.000000  -0.000000  -0.000001  -0.000001   0.000000
  122  O  1 ZZZ  -0.000000  -0.000000   0.000001  -0.000001   0.000000
  123  O  1 XXY  -0.000000  -0.000000   0.000002   0.000001   0.000000
  124  O  1 XXZ  -0.000000  -0.000000  -0.000001   0.000002   0.000000
  125  O  1 YYX  -0.000000  -0.000000   0.000000  -0.000000  -0.000002
  126  O  1 YYZ  -0.000000  -0.000000   0.000000  -0.000001   0.000000
  127  O  1 ZZX  -0.000000  -0.000000   0.000000  -0.000000  -0.000002
  128  O  1 ZZY  -0.000000  -0.000000  -0.000001  -0.000000   0.000000
  129  O  1 XYZ  -0.000000  -0.000000   0.000000  -0.000000   0.000000
  130  O  1XXXX   0.000001   0.000029   0.000000  -0.000000   0.000000
  131  O  1YYYY   0.000000   0.000011   0.000000  -0.000000   0.000000
  132  O  1ZZZZ   0.000000   0.000011   0.000000  -0.000000   0.000000
  133  O  1XXXY  -0.000000  -0.000000   0.000000  -0.000000   0.000000
  134  O  1XXXZ  -0.000000  -0.000000   0.000000  -0.000000   0.000000
  135  O  1YYYX  -0.000000  -0.000000   0.000000  -0.000000   0.000000
  136  O  1YYYZ  -0.000000  -0.000000   0.000000  -0.000000   0.000000
  137  O  1ZZZX  -0.000000  -0.000000   0.000000  -0.000000   0.000000
  138  O  1ZZZY  -0.000000  -0.000000   0.000000  -0.000000   0.000000
  139  O  1XXYY  -0.000001  -0.000026   0.000000  -0.000000   0.000000
  140  O  1XXZZ  -0.000001  -0.000026   0.000000  -0.000000   0.000000
  141  O  1YYZZ   0.000000   0.000006   0.000000  -0.000000   0.000000
  142  O  1XXYZ  -0.000000  -0.000000   0.000000  -0.000000   0.000000
  143  O  1YYXZ  -0.000000  -0.000000   0.000000  -0.000000   0.000000
  144  O  1ZZXY  -0.000000  -0.000000   0.000000  -0.000000   0.000000
  145  O  1XXXX  -0.000000   0.000115   0.000000  -0.000000   0.000000
  146  O  1YYYY  -0.000000   0.000043   0.000000  -0.000000   0.000000
  147  O  1ZZZZ  -0.000000   0.000043   0.000000  -0.000000   0.000000
  148  O  1XXXY  -0.000000  -0.000000   0.000000  -0.000000   0.000000
  149  O  1XXXZ  -0.000000  -0.000000   0.000000  -0.000000   0.000000
  150  O  1YYYX  -0.000000  -0.000000   0.000000  -0.000000   0.000000
  151  O  1YYYZ  -0.000000  -0.000000   0.000000  -0.000000   0.000000
  152  O  1ZZZX  -0.000000  -0.000000   0.000000  -0.000000   0.000000
  153  O  1ZZZY  -0.000000  -0.000000   0.000000  -0.000000   0.000000
  154  O  1XXYY   0.000000  -0.000101   0.000000  -0.000000   0.000000
  155  O  1XXZZ   0.000000  -0.000101   0.000000  -0.000000   0.000000
  156  O  1YYZZ  -0.000000   0.000025   0.000000  -0.000000   0.000000
  157  O  1XXYZ  -0.000000  -0.000000   0.000000  -0.000000   0.000000
  158  O  1YYXZ  -0.000000  -0.000000   0.000000  -0.000000   0.000000
  159  O  1ZZXY  -0.000000  -0.000000   0.000000  -0.000000   0.000000
  160  O  1XXXX   0.000000   0.000000   0.000000  -0.000000   0.000000
  161  O  1YYYY   0.000000   0.000000   0.000000  -0.000000   0.000000
  162  O  1ZZZZ   0.000000   0.000000   0.000000  -0.000000   0.000000
  163  O  1XXXY  -0.000000  -0.000000   0.000000  -0.000000   0.000000
  164  O  1XXXZ  -0.000000  -0.000000   0.000000  -0.000000   0.000000
  165  O  1YYYX  -0.000000  -0.000000   0.000000  -0.000000   0.000000
  166  O  1YYYZ  -0.000000  -0.000000   0.000000  -0.000000   0.000000
  167  O  1ZZZX  -0.000000  -0.000000   0.000000  -0.000000   0.000000
  168  O  1ZZZY  -0.000000  -0.000000   0.000000  -0.000000   0.000000
  169  O  1XXYY  -0.000000  -0.000000   0.000000  -0.000000   0.000000
  170  O  1XXZZ  -0.000000  -0.000000   0.000000  -0.000000   0.000000
  171  O  1YYZZ   0.000000   0.000000   0.000000  -0.000000   0.000000
  172  O  1XXYZ  -0.000000  -0.000000   0.000000  -0.000000   0.000000
  173  O  1YYXZ  -0.000000  -0.000000   0.000000  -0.000000   0.000000
  174  O  1ZZXY  -0.000000  -0.000000   0.000000  -0.000000   0.000000

                      6          7          8          9         10
                    0.3345     0.3345     0.3559     0.4444     0.9337
                     A          A          A          A          A   
    1  O  1  S   -0.000000   0.000000   0.000000   0.373756  -0.000000
    2  O  1  S   -0.000000   0.000000   0.000000   0.731558  -0.000000
    3  O  1  S   -0.000000   0.000000   0.000000   0.345859  -0.000000
    4  O  1  S   -0.000000   0.000000   0.000000  -0.566379  -0.000000
    5  O  1  S   -0.000000   0.000000   0.000000   2.193602  -0.000000
    6  O  1  S   -0.000000   0.000000   0.000000  -2.147358  -0.000000
    7  O  1  S   -0.000000   0.000000   0.000000   0.109571  -0.000000
    8  O  1  S   -0.000000   0.000000   0.000000  -0.012508  -0.000000
    9  O  1  S   -0.000000   0.000000   0.000000   0.009437  -0.000000
   10  O  1  S   -0.000000   0.000000   0.000000  -0.001986  -0.000000
   11  O  1  X   -0.000000   0.000000  -0.022645   0.000000  -0.000000
   12  O  1  Y   -0.021344  -0.003609   0.000000   0.000000  -0.000000
   13  O  1  Z    0.003609  -0.021344   0.000000   0.000000  -0.000000
   14  O  1  X   -0.000000   0.000000  -0.202897   0.000000  -0.000000
   15  O  1  Y   -0.191991  -0.032467   0.000000   0.000000  -0.000000
   16  O  1  Z    0.032467  -0.191991   0.000000   0.000000  -0.000000
   17  O  1  X   -0.000000   0.000000   0.109275   0.000000  -0.000000
   18  O  1  Y    0.098642   0.016681   0.000000   0.000000  -0.000000
   19  O  1  Z   -0.016681   0.098642   0.000000   0.000000  -0.000000
   20  O  1  X   -0.000000   0.000000  -0.890349   0.000000  -0.000000
   21  O  1  Y   -0.832033  -0.140702   0.000000   0.000000  -0.000000
   22  O  1  Z    0.140702  -0.832033   0.000000   0.000000  -0.000000
   23  O  1  X   -0.000000   0.000000   1.451501   0.000000  -0.000000
   24  O  1  Y    1.419248   0.240005   0.000000   0.000000  -0.000000
   25  O  1  Z   -0.240005   1.419248   0.000000   0.000000  -0.000000
   26  O  1  X   -0.000000   0.000000  -0.018283   0.000000  -0.000000
   27  O  1  Y   -0.017149  -0.002900   0.000000   0.000000  -0.000000
   28  O  1  Z    0.002900  -0.017149   0.000000   0.000000  -0.000000
   29  O  1  X   -0.000000   0.000000   0.001239   0.000000  -0.000000
   30  O  1  Y    0.001159   0.000196   0.000000   0.000000  -0.000000
   31  O  1  Z   -0.000196   0.001159   0.000000   0.000000  -0.000000
   32  O  1  X   -0.000000   0.000000  -0.001458   0.000000  -0.000000
   33  O  1  Y   -0.001368  -0.000231   0.000000   0.000000  -0.000000
   34  O  1  Z    0.000231  -0.001368   0.000000   0.000000  -0.000000
   35  O  1  X   -0.000000   0.000000   0.000080   0.000000  -0.000000
   36  O  1  Y    0.000075   0.000013   0.000000   0.000000  -0.000000
   37  O  1  Z   -0.000013   0.000075   0.000000   0.000000  -0.000000
   38  O  1 XX   -0.000000   0.000000   0.000000  -0.001042  -0.000000
   39  O  1 YY   -0.000000   0.000000   0.000000   0.000521  -0.010895
   40  O  1 ZZ   -0.000000   0.000000   0.000000   0.000521   0.010895
   41  O  1 XY   -0.000000   0.000000   0.000000   0.000000  -0.000000
   42  O  1 XZ   -0.000000   0.000000   0.000000   0.000000  -0.000000
   43  O  1 YZ   -0.000000   0.000000   0.000000   0.000000  -0.019246
   44  O  1 XX   -0.000000   0.000000   0.000000   0.000153  -0.000000
   45  O  1 YY   -0.000000   0.000000   0.000000  -0.000076   0.055554
   46  O  1 ZZ   -0.000000   0.000000   0.000000  -0.000076  -0.055554
   47  O  1 XY   -0.000000   0.000000   0.000000   0.000000  -0.000000
   48  O  1 XZ   -0.000000   0.000000   0.000000   0.000000  -0.000000
   49  O  1 YZ   -0.000000   0.000000   0.000000   0.000000   0.098135
   50  O  1 XX   -0.000000   0.000000   0.000000  -0.014703  -0.000000
   51  O  1 YY   -0.000000   0.000000   0.000000   0.007352  -0.109601
   52  O  1 ZZ   -0.000000   0.000000   0.000000   0.007352   0.109601
   53  O  1 XY   -0.000000   0.000000   0.000000   0.000000  -0.000000
   54  O  1 XZ   -0.000000   0.000000   0.000000   0.000000  -0.000000
   55  O  1 YZ   -0.000000   0.000000   0.000000   0.000000  -0.193608
   56  O  1 XX   -0.000000   0.000000   0.000000   0.030808  -0.000000
   57  O  1 YY   -0.000000   0.000000   0.000000  -0.015404   0.532942
   58  O  1 ZZ   -0.000000   0.000000   0.000000  -0.015404  -0.532942
   59  O  1 XY   -0.000000   0.000000   0.000000   0.000000  -0.000000
   60  O  1 XZ   -0.000000   0.000000   0.000000   0.000000  -0.000000
   61  O  1 YZ   -0.000000   0.000000   0.000000   0.000000   0.941434
   62  O  1 XX   -0.000000   0.000000   0.000000   0.000204  -0.000000
   63  O  1 YY   -0.000000   0.000000   0.000000  -0.000102   0.003357
   64  O  1 ZZ   -0.000000   0.000000   0.000000  -0.000102  -0.003357
   65  O  1 XY   -0.000000   0.000000   0.000000   0.000000  -0.000000
   66  O  1 XZ   -0.000000   0.000000   0.000000   0.000000  -0.000000
   67  O  1 YZ   -0.000000   0.000000   0.000000   0.000000   0.005930
   68  O  1 XX   -0.000000   0.000000   0.000000  -0.000051  -0.000000
   69  O  1 YY   -0.000000   0.000000   0.000000   0.000026  -0.000735
   70  O  1 ZZ   -0.000000   0.000000   0.000000   0.000026   0.000735
   71  O  1 XY   -0.000000   0.000000   0.000000   0.000000  -0.000000
   72  O  1 XZ   -0.000000   0.000000   0.000000   0.000000  -0.000000
   73  O  1 YZ   -0.000000   0.000000   0.000000   0.000000  -0.001299
   74  O  1 XX   -0.000000   0.000000   0.000000   0.000010  -0.000000
   75  O  1 YY   -0.000000   0.000000   0.000000  -0.000005   0.000157
   76  O  1 ZZ   -0.000000   0.000000   0.000000  -0.000005  -0.000157
   77  O  1 XY   -0.000000   0.000000   0.000000   0.000000  -0.000000
   78  O  1 XZ   -0.000000   0.000000   0.000000   0.000000  -0.000000
   79  O  1 YZ   -0.000000   0.000000   0.000000   0.000000   0.000277
   80  O  1 XXX  -0.000000   0.000000   0.000338   0.000000  -0.000000
   81  O  1 YYY  -0.000147  -0.000025   0.000000   0.000000  -0.000000
   82  O  1 ZZZ   0.000025  -0.000147   0.000000   0.000000  -0.000000
   83  O  1 XXY   0.000264   0.000045   0.000000   0.000000  -0.000000
   84  O  1 XXZ  -0.000045   0.000264   0.000000   0.000000  -0.000000
   85  O  1 YYX  -0.000000   0.000000  -0.000227   0.000000  -0.000000
   86  O  1 YYZ   0.000011  -0.000066   0.000000   0.000000  -0.000000
   87  O  1 ZZX  -0.000000   0.000000  -0.000227   0.000000  -0.000000
   88  O  1 ZZY  -0.000066  -0.000011   0.000000   0.000000  -0.000000
   89  O  1 XYZ  -0.000000   0.000000   0.000000   0.000000  -0.000000
   90  O  1 XXX  -0.000000   0.000000   0.003030   0.000000  -0.000000
   91  O  1 YYY  -0.001451  -0.000245   0.000000   0.000000  -0.000000
   92  O  1 ZZZ   0.000245  -0.001451   0.000000   0.000000  -0.000000
   93  O  1 XXY   0.002595   0.000439   0.000000   0.000000  -0.000000
   94  O  1 XXZ  -0.000439   0.002595   0.000000   0.000000  -0.000000
   95  O  1 YYX  -0.000000   0.000000  -0.002033   0.000000  -0.000000
   96  O  1 YYZ   0.000110  -0.000649   0.000000   0.000000  -0.000000
   97  O  1 ZZX  -0.000000   0.000000  -0.002033   0.000000  -0.000000
   98  O  1 ZZY  -0.000649  -0.000110   0.000000   0.000000  -0.000000
   99  O  1 XYZ  -0.000000   0.000000   0.000000   0.000000  -0.000000
  100  O  1 XXX  -0.000000   0.000000  -0.001831   0.000000  -0.000000
  101  O  1 YYY   0.001165   0.000197   0.000000   0.000000  -0.000000
  102  O  1 ZZZ  -0.000197   0.001165   0.000000   0.000000  -0.000000
  103  O  1 XXY  -0.002084  -0.000352   0.000000   0.000000  -0.000000
  104  O  1 XXZ   0.000352  -0.002084   0.000000   0.000000  -0.000000
  105  O  1 YYX  -0.000000   0.000000   0.001228   0.000000  -0.000000
  106  O  1 YYZ  -0.000088   0.000521   0.000000   0.000000  -0.000000
  107  O  1 ZZX  -0.000000   0.000000   0.001228   0.000000  -0.000000
  108  O  1 ZZY   0.000521   0.000088   0.000000   0.000000  -0.000000
  109  O  1 XYZ  -0.000000   0.000000   0.000000   0.000000  -0.000000
  110  O  1 XXX  -0.000000   0.000000   0.000056   0.000000  -0.000000
  111  O  1 YYY  -0.000027  -0.000005   0.000000   0.000000  -0.000000
  112  O  1 ZZZ   0.000005  -0.000027   0.000000   0.000000  -0.000000
  113  O  1 XXY   0.000049   0.000008   0.000000   0.000000  -0.000000
  114  O  1 XXZ  -0.000008   0.000049   0.000000   0.000000  -0.000000
  115  O  1 YYX  -0.000000   0.000000  -0.000038   0.000000  -0.000000
  116  O  1 YYZ   0.000002  -0.000012   0.000000   0.000000  -0.000000
  117  O  1 ZZX  -0.000000   0.000000  -0.000038   0.000000  -0.000000
  118  O  1 ZZY  -0.000012  -0.000002   0.000000   0.000000  -0.000000
  119  O  1 XYZ  -0.000000   0.000000   0.000000   0.000000  -0.000000
  120  O  1 XXX  -0.000000   0.000000  -0.000004   0.000000  -0.000000
  121  O  1 YYY   0.000002   0.000000   0.000000   0.000000  -0.000000
  122  O  1 ZZZ  -0.000000   0.000002   0.000000   0.000000  -0.000000
  123  O  1 XXY  -0.000004  -0.000001   0.000000   0.000000  -0.000000
  124  O  1 XXZ   0.000001  -0.000004   0.000000   0.000000  -0.000000
  125  O  1 YYX  -0.000000   0.000000   0.000003   0.000000  -0.000000
  126  O  1 YYZ  -0.000000   0.000001   0.000000   0.000000  -0.000000
  127  O  1 ZZX  -0.000000   0.000000   0.000003   0.000000  -0.000000
  128  O  1 ZZY   0.000001   0.000000   0.000000   0.000000  -0.000000
  129  O  1 XYZ  -0.000000   0.000000   0.000000   0.000000  -0.000000
  130  O  1XXXX  -0.000000   0.000000   0.000000   0.000025  -0.000000
  131  O  1YYYY  -0.000000   0.000000   0.000000   0.000009  -0.000078
  132  O  1ZZZZ  -0.000000   0.000000   0.000000   0.000009   0.000078
  133  O  1XXXY  -0.000000   0.000000   0.000000   0.000000  -0.000000
  134  O  1XXXZ  -0.000000   0.000000   0.000000   0.000000  -0.000000
  135  O  1YYYX  -0.000000   0.000000   0.000000   0.000000  -0.000000
  136  O  1YYYZ  -0.000000   0.000000   0.000000   0.000000  -0.000090
  137  O  1ZZZX  -0.000000   0.000000   0.000000   0.000000  -0.000000
  138  O  1ZZZY  -0.000000   0.000000   0.000000   0.000000  -0.000090
  139  O  1XXYY  -0.000000   0.000000   0.000000  -0.000022   0.000137
  140  O  1XXZZ  -0.000000   0.000000   0.000000  -0.000022  -0.000137
  141  O  1YYZZ  -0.000000   0.000000   0.000000   0.000005  -0.000000
  142  O  1XXYZ  -0.000000   0.000000   0.000000   0.000000   0.000241
  143  O  1YYXZ  -0.000000   0.000000   0.000000   0.000000  -0.000000
  144  O  1ZZXY  -0.000000   0.000000   0.000000   0.000000  -0.000000
  145  O  1XXXX  -0.000000   0.000000   0.000000  -0.000053  -0.000000
  146  O  1YYYY  -0.000000   0.000000   0.000000  -0.000020   0.001088
  147  O  1ZZZZ  -0.000000   0.000000   0.000000  -0.000020  -0.001088
  148  O  1XXXY  -0.000000   0.000000   0.000000   0.000000  -0.000000
  149  O  1XXXZ  -0.000000   0.000000   0.000000   0.000000  -0.000000
  150  O  1YYYX  -0.000000   0.000000   0.000000   0.000000  -0.000000
  151  O  1YYYZ  -0.000000   0.000000   0.000000   0.000000   0.001258
  152  O  1ZZZX  -0.000000   0.000000   0.000000   0.000000  -0.000000
  153  O  1ZZZY  -0.000000   0.000000   0.000000   0.000000   0.001258
  154  O  1XXYY  -0.000000   0.000000   0.000000   0.000046  -0.001911
  155  O  1XXZZ  -0.000000   0.000000   0.000000   0.000046   0.001911
  156  O  1YYZZ  -0.000000   0.000000   0.000000  -0.000012  -0.000000
  157  O  1XXYZ  -0.000000   0.000000   0.000000   0.000000  -0.003376
  158  O  1YYXZ  -0.000000   0.000000   0.000000   0.000000  -0.000000
  159  O  1ZZXY  -0.000000   0.000000   0.000000   0.000000  -0.000000
  160  O  1XXXX  -0.000000   0.000000   0.000000   0.000000  -0.000000
  161  O  1YYYY  -0.000000   0.000000   0.000000   0.000000   0.000000
  162  O  1ZZZZ  -0.000000   0.000000   0.000000   0.000000  -0.000000
  163  O  1XXXY  -0.000000   0.000000   0.000000   0.000000  -0.000000
  164  O  1XXXZ  -0.000000   0.000000   0.000000   0.000000  -0.000000
  165  O  1YYYX  -0.000000   0.000000   0.000000   0.000000  -0.000000
  166  O  1YYYZ  -0.000000   0.000000   0.000000   0.000000   0.000000
  167  O  1ZZZX  -0.000000   0.000000   0.000000   0.000000  -0.000000
  168  O  1ZZZY  -0.000000   0.000000   0.000000   0.000000   0.000000
  169  O  1XXYY  -0.000000   0.000000   0.000000  -0.000000  -0.000001
  170  O  1XXZZ  -0.000000   0.000000   0.000000  -0.000000   0.000001
  171  O  1YYZZ  -0.000000   0.000000   0.000000   0.000000  -0.000000
  172  O  1XXYZ  -0.000000   0.000000   0.000000   0.000000  -0.000001
  173  O  1YYXZ  -0.000000   0.000000   0.000000   0.000000  -0.000000
  174  O  1ZZXY  -0.000000   0.000000   0.000000   0.000000  -0.000000

                     11         12         13         14         15
                    0.9337     0.9618     0.9618     0.9720     1.4622
                     A          A          A          A          A   
    1  O  1  S    0.000000   0.000000   0.000000  -0.020769   0.000000
    2  O  1  S    0.000000   0.000000   0.000000  -0.027028   0.000000
    3  O  1  S    0.000000   0.000000   0.000000  -0.019403   0.000000
    4  O  1  S    0.000000   0.000000   0.000000   0.053580   0.000000
    5  O  1  S    0.000000   0.000000   0.000000  -0.075413   0.000000
    6  O  1  S    0.000000   0.000000   0.000000   0.062598   0.000000
    7  O  1  S    0.000000   0.000000   0.000000  -0.006357   0.000000
    8  O  1  S    0.000000   0.000000   0.000000   0.000746   0.000000
    9  O  1  S    0.000000   0.000000   0.000000  -0.000548   0.000000
   10  O  1  S    0.000000   0.000000   0.000000   0.000117   0.000000
   11  O  1  X    0.000000   0.000000   0.000000   0.000000   0.000000
   12  O  1  Y    0.000000   0.000000   0.000000   0.000000   0.099798
   13  O  1  Z    0.000000   0.000000   0.000000   0.000000  -0.254953
   14  O  1  X    0.000000   0.000000   0.000000   0.000000   0.000000
   15  O  1  Y    0.000000   0.000000   0.000000   0.000000  -0.030751
   16  O  1  Z    0.000000   0.000000   0.000000   0.000000   0.078559
   17  O  1  X    0.000000   0.000000   0.000000   0.000000   0.000000
   18  O  1  Y    0.000000   0.000000   0.000000   0.000000   0.533638
   19  O  1  Z    0.000000   0.000000   0.000000   0.000000  -1.363279
   20  O  1  X    0.000000   0.000000   0.000000   0.000000   0.000000
   21  O  1  Y    0.000000   0.000000   0.000000   0.000000  -0.876373
   22  O  1  Z    0.000000   0.000000   0.000000   0.000000   2.238858
   23  O  1  X    0.000000   0.000000   0.000000   0.000000   0.000000
   24  O  1  Y    0.000000   0.000000   0.000000   0.000000   0.385266
   25  O  1  Z    0.000000   0.000000   0.000000   0.000000  -0.984233
   26  O  1  X    0.000000   0.000000   0.000000   0.000000   0.000000
   27  O  1  Y    0.000000   0.000000   0.000000   0.000000  -0.023449
   28  O  1  Z    0.000000   0.000000   0.000000   0.000000   0.059906
   29  O  1  X    0.000000   0.000000   0.000000   0.000000   0.000000
   30  O  1  Y    0.000000   0.000000   0.000000   0.000000   0.001193
   31  O  1  Z    0.000000   0.000000   0.000000   0.000000  -0.003047
   32  O  1  X    0.000000   0.000000   0.000000   0.000000   0.000000
   33  O  1  Y    0.000000   0.000000   0.000000   0.000000  -0.001821
   34  O  1  Z    0.000000   0.000000   0.000000   0.000000   0.004652
   35  O  1  X    0.000000   0.000000   0.000000   0.000000   0.000000
   36  O  1  Y    0.000000   0.000000   0.000000   0.000000   0.000067
   37  O  1  Z    0.000000   0.000000   0.000000   0.000000  -0.000172
   38  O  1 XX    0.000000   0.000000   0.000000  -0.024068   0.000000
   39  O  1 YY   -0.016667   0.000000   0.000000   0.012034   0.000000
   40  O  1 ZZ    0.016667   0.000000   0.000000   0.012034   0.000000
   41  O  1 XY    0.000000  -0.023256  -0.005050   0.000000   0.000000
   42  O  1 XZ    0.000000   0.005050  -0.023256   0.000000   0.000000
   43  O  1 YZ    0.012581   0.000000   0.000000   0.000000   0.000000
   44  O  1 XX    0.000000   0.000000   0.000000   0.119387   0.000000
   45  O  1 YY    0.084987   0.000000   0.000000  -0.059693   0.000000
   46  O  1 ZZ   -0.084987   0.000000   0.000000  -0.059693   0.000000
   47  O  1 XY    0.000000   0.116230   0.025240   0.000000   0.000000
   48  O  1 XZ    0.000000  -0.025240   0.116230   0.000000   0.000000
   49  O  1 YZ   -0.064148   0.000000   0.000000   0.000000   0.000000
   50  O  1 XX    0.000000   0.000000   0.000000  -0.247099   0.000000
   51  O  1 YY   -0.167670   0.000000   0.000000   0.123550   0.000000
   52  O  1 ZZ    0.167670   0.000000   0.000000   0.123550   0.000000
   53  O  1 XY    0.000000  -0.237540  -0.051583   0.000000   0.000000
   54  O  1 XZ    0.000000   0.051583  -0.237540   0.000000   0.000000
   55  O  1 YZ    0.126556   0.000000   0.000000   0.000000   0.000000
   56  O  1 XX    0.000000   0.000000   0.000000   1.133720   0.000000
   57  O  1 YY    0.815306   0.000000   0.000000  -0.566860   0.000000
   58  O  1 ZZ   -0.815306   0.000000   0.000000  -0.566860   0.000000
   59  O  1 XY    0.000000   1.105931   0.240157   0.000000   0.000000
   60  O  1 XZ    0.000000  -0.240157   1.105931   0.000000   0.000000
   61  O  1 YZ   -0.615389   0.000000   0.000000   0.000000   0.000000
   62  O  1 XX    0.000000   0.000000   0.000000   0.007283   0.000000
   63  O  1 YY    0.005136   0.000000   0.000000  -0.003642   0.000000
   64  O  1 ZZ   -0.005136   0.000000   0.000000  -0.003642   0.000000
   65  O  1 XY    0.000000   0.007071   0.001535   0.000000   0.000000
   66  O  1 XZ    0.000000  -0.001535   0.007071   0.000000   0.000000
   67  O  1 YZ   -0.003876   0.000000   0.000000   0.000000   0.000000
   68  O  1 XX    0.000000   0.000000   0.000000  -0.001609   0.000000
   69  O  1 YY   -0.001125   0.000000   0.000000   0.000805   0.000000
   70  O  1 ZZ    0.001125   0.000000   0.000000   0.000805   0.000000
   71  O  1 XY    0.000000  -0.001559  -0.000339   0.000000   0.000000
   72  O  1 XZ    0.000000   0.000339  -0.001559   0.000000   0.000000
   73  O  1 YZ    0.000849   0.000000   0.000000   0.000000   0.000000
   74  O  1 XX    0.000000   0.000000   0.000000   0.000342   0.000000
   75  O  1 YY    0.000240   0.000000   0.000000  -0.000171   0.000000
   76  O  1 ZZ   -0.000240   0.000000   0.000000  -0.000171   0.000000
   77  O  1 XY    0.000000   0.000331   0.000072   0.000000   0.000000
   78  O  1 XZ    0.000000  -0.000072   0.000331   0.000000   0.000000
   79  O  1 YZ   -0.000181   0.000000   0.000000   0.000000   0.000000
   80  O  1 XXX   0.000000   0.000000   0.000000   0.000000   0.000000
   81  O  1 YYY   0.000000   0.000000   0.000000   0.000000   0.000037
   82  O  1 ZZZ   0.000000   0.000000   0.000000   0.000000  -0.000095
   83  O  1 XXY   0.000000   0.000000   0.000000   0.000000  -0.000066
   84  O  1 XXZ   0.000000   0.000000   0.000000   0.000000   0.000169
   85  O  1 YYX   0.000000   0.000000   0.000000   0.000000   0.000000
   86  O  1 YYZ   0.000000   0.000000   0.000000   0.000000  -0.000042
   87  O  1 ZZX   0.000000   0.000000   0.000000   0.000000   0.000000
   88  O  1 ZZY   0.000000   0.000000   0.000000   0.000000   0.000017
   89  O  1 XYZ   0.000000   0.000000   0.000000   0.000000   0.000000
   90  O  1 XXX   0.000000   0.000000   0.000000   0.000000   0.000000
   91  O  1 YYY   0.000000   0.000000   0.000000   0.000000   0.001455
   92  O  1 ZZZ   0.000000   0.000000   0.000000   0.000000  -0.003716
   93  O  1 XXY   0.000000   0.000000   0.000000   0.000000  -0.002602
   94  O  1 XXZ   0.000000   0.000000   0.000000   0.000000   0.006648
   95  O  1 YYX   0.000000   0.000000   0.000000   0.000000   0.000000
   96  O  1 YYZ   0.000000   0.000000   0.000000   0.000000  -0.001662
   97  O  1 ZZX   0.000000   0.000000   0.000000   0.000000   0.000000
   98  O  1 ZZY   0.000000   0.000000   0.000000   0.000000   0.000651
   99  O  1 XYZ   0.000000   0.000000   0.000000   0.000000   0.000000
  100  O  1 XXX   0.000000   0.000000   0.000000   0.000000   0.000000
  101  O  1 YYY   0.000000   0.000000   0.000000   0.000000  -0.004322
  102  O  1 ZZZ   0.000000   0.000000   0.000000   0.000000   0.011042
  103  O  1 XXY   0.000000   0.000000   0.000000   0.000000   0.007732
  104  O  1 XXZ   0.000000   0.000000   0.000000   0.000000  -0.019753
  105  O  1 YYX   0.000000   0.000000   0.000000   0.000000   0.000000
  106  O  1 YYZ   0.000000   0.000000   0.000000   0.000000   0.004938
  107  O  1 ZZX   0.000000   0.000000   0.000000   0.000000   0.000000
  108  O  1 ZZY   0.000000   0.000000   0.000000   0.000000  -0.001933
  109  O  1 XYZ   0.000000   0.000000   0.000000   0.000000   0.000000
  110  O  1 XXX   0.000000   0.000000   0.000000   0.000000   0.000000
  111  O  1 YYY   0.000000   0.000000   0.000000   0.000000   0.000029
  112  O  1 ZZZ   0.000000   0.000000   0.000000   0.000000  -0.000075
  113  O  1 XXY   0.000000   0.000000   0.000000   0.000000  -0.000052
  114  O  1 XXZ   0.000000   0.000000   0.000000   0.000000   0.000134
  115  O  1 YYX   0.000000   0.000000   0.000000   0.000000   0.000000
  116  O  1 YYZ   0.000000   0.000000   0.000000   0.000000  -0.000033
  117  O  1 ZZX   0.000000   0.000000   0.000000   0.000000   0.000000
  118  O  1 ZZY   0.000000   0.000000   0.000000   0.000000   0.000013
  119  O  1 XYZ   0.000000   0.000000   0.000000   0.000000   0.000000
  120  O  1 XXX   0.000000   0.000000   0.000000   0.000000   0.000000
  121  O  1 YYY   0.000000   0.000000   0.000000   0.000000  -0.000003
  122  O  1 ZZZ   0.000000   0.000000   0.000000   0.000000   0.000007
  123  O  1 XXY   0.000000   0.000000   0.000000   0.000000   0.000005
  124  O  1 XXZ   0.000000   0.000000   0.000000   0.000000  -0.000012
  125  O  1 YYX   0.000000   0.000000   0.000000   0.000000   0.000000
  126  O  1 YYZ   0.000000   0.000000   0.000000   0.000000   0.000003
  127  O  1 ZZX   0.000000   0.000000   0.000000   0.000000   0.000000
  128  O  1 ZZY   0.000000   0.000000   0.000000   0.000000  -0.000001
  129  O  1 XYZ   0.000000   0.000000   0.000000   0.000000   0.000000
  130  O  1XXXX   0.000000   0.000000   0.000000   0.000413   0.000000
  131  O  1YYYY  -0.000119   0.000000   0.000000   0.000155   0.000000
  132  O  1ZZZZ   0.000119   0.000000   0.000000   0.000155   0.000000
  133  O  1XXXY   0.000000   0.000435   0.000094   0.000000   0.000000
  134  O  1XXXZ   0.000000  -0.000094   0.000435   0.000000   0.000000
  135  O  1YYYX   0.000000  -0.000326  -0.000071   0.000000   0.000000
  136  O  1YYYZ   0.000059   0.000000   0.000000   0.000000   0.000000
  137  O  1ZZZX   0.000000   0.000071  -0.000326   0.000000   0.000000
  138  O  1ZZZY   0.000059   0.000000   0.000000   0.000000   0.000000
  139  O  1XXYY   0.000209   0.000000   0.000000  -0.000363   0.000000
  140  O  1XXZZ  -0.000209   0.000000   0.000000  -0.000363   0.000000
  141  O  1YYZZ   0.000000   0.000000   0.000000   0.000091   0.000000
  142  O  1XXYZ  -0.000158   0.000000   0.000000   0.000000   0.000000
  143  O  1YYXZ   0.000000   0.000032  -0.000146   0.000000   0.000000
  144  O  1ZZXY   0.000000  -0.000146  -0.000032   0.000000   0.000000
  145  O  1XXXX   0.000000   0.000000   0.000000  -0.005485   0.000000
  146  O  1YYYY   0.001664   0.000000   0.000000  -0.002057   0.000000
  147  O  1ZZZZ  -0.001664   0.000000   0.000000  -0.002057   0.000000
  148  O  1XXXY   0.000000  -0.005857  -0.001272   0.000000   0.000000
  149  O  1XXXZ   0.000000   0.001272  -0.005857   0.000000   0.000000
  150  O  1YYYX   0.000000   0.004393   0.000954   0.000000   0.000000
  151  O  1YYYZ  -0.000822   0.000000   0.000000   0.000000   0.000000
  152  O  1ZZZX   0.000000  -0.000954   0.004393   0.000000   0.000000
  153  O  1ZZZY  -0.000822   0.000000   0.000000   0.000000   0.000000
  154  O  1XXYY  -0.002924   0.000000   0.000000   0.004817   0.000000
  155  O  1XXZZ   0.002924   0.000000   0.000000   0.004817   0.000000
  156  O  1YYZZ   0.000000   0.000000   0.000000  -0.001204   0.000000
  157  O  1XXYZ   0.002207   0.000000   0.000000   0.000000   0.000000
  158  O  1YYXZ   0.000000  -0.000427   0.001964   0.000000   0.000000
  159  O  1ZZXY   0.000000   0.001964   0.000427   0.000000   0.000000
  160  O  1XXXX   0.000000   0.000000   0.000000  -0.000002   0.000000
  161  O  1YYYY   0.000001   0.000000   0.000000  -0.000001   0.000000
  162  O  1ZZZZ  -0.000001   0.000000   0.000000  -0.000001   0.000000
  163  O  1XXXY   0.000000  -0.000002  -0.000000   0.000000   0.000000
  164  O  1XXXZ   0.000000   0.000000  -0.000002   0.000000   0.000000
  165  O  1YYYX   0.000000   0.000001   0.000000   0.000000   0.000000
  166  O  1YYYZ  -0.000000   0.000000   0.000000   0.000000   0.000000
  167  O  1ZZZX   0.000000  -0.000000   0.000001   0.000000   0.000000
  168  O  1ZZZY  -0.000000   0.000000   0.000000   0.000000   0.000000
  169  O  1XXYY  -0.000001   0.000000   0.000000   0.000001   0.000000
  170  O  1XXZZ   0.000001   0.000000   0.000000   0.000001   0.000000
  171  O  1YYZZ   0.000000   0.000000   0.000000  -0.000000   0.000000
  172  O  1XXYZ   0.000001   0.000000   0.000000   0.000000   0.000000
  173  O  1YYXZ   0.000000  -0.000000   0.000001   0.000000   0.000000
  174  O  1ZZXY   0.000000   0.000001   0.000000   0.000000   0.000000

                     16         17         18         19         20
                    1.4622     1.5133     2.3206     2.3206     2.3471
                     A          A          A          A          A   
    1  O  1  S   -0.000000   0.000000  -0.000000   0.000000   0.000000
    2  O  1  S   -0.000000   0.000000  -0.000000   0.000000   0.000000
    3  O  1  S   -0.000000   0.000000  -0.000000   0.000000   0.000000
    4  O  1  S   -0.000000   0.000000  -0.000000   0.000000   0.000000
    5  O  1  S   -0.000000   0.000000  -0.000000   0.000000   0.000000
    6  O  1  S   -0.000000   0.000000  -0.000000   0.000000   0.000000
    7  O  1  S   -0.000000   0.000000  -0.000000   0.000000   0.000000
    8  O  1  S   -0.000000   0.000000  -0.000000   0.000000   0.000000
    9  O  1  S   -0.000000   0.000000  -0.000000   0.000000   0.000000
   10  O  1  S   -0.000000   0.000000  -0.000000   0.000000   0.000000
   11  O  1  X   -0.000000  -0.279474  -0.000000   0.000000   0.000000
   12  O  1  Y   -0.254953   0.000000  -0.000000   0.000000   0.000000
   13  O  1  Z   -0.099798   0.000000  -0.000000   0.000000   0.000000
   14  O  1  X   -0.000000   0.092232  -0.000000   0.000000   0.000000
   15  O  1  Y    0.078559   0.000000  -0.000000   0.000000   0.000000
   16  O  1  Z    0.030751   0.000000  -0.000000   0.000000   0.000000
   17  O  1  X   -0.000000  -1.487054  -0.000000   0.000000   0.000000
   18  O  1  Y   -1.363279   0.000000  -0.000000   0.000000   0.000000
   19  O  1  Z   -0.533638   0.000000  -0.000000   0.000000   0.000000
   20  O  1  X   -0.000000   2.398281  -0.000000   0.000000   0.000000
   21  O  1  Y    2.238858   0.000000  -0.000000   0.000000   0.000000
   22  O  1  Z    0.876373   0.000000  -0.000000   0.000000   0.000000
   23  O  1  X   -0.000000  -1.040033  -0.000000   0.000000   0.000000
   24  O  1  Y   -0.984233   0.000000  -0.000000   0.000000   0.000000
   25  O  1  Z   -0.385266   0.000000  -0.000000   0.000000   0.000000
   26  O  1  X   -0.000000   0.065945  -0.000000   0.000000   0.000000
   27  O  1  Y    0.059906   0.000000  -0.000000   0.000000   0.000000
   28  O  1  Z    0.023449   0.000000  -0.000000   0.000000   0.000000
   29  O  1  X   -0.000000  -0.003354  -0.000000   0.000000   0.000000
   30  O  1  Y   -0.003047   0.000000  -0.000000   0.000000   0.000000
   31  O  1  Z   -0.001193   0.000000  -0.000000   0.000000   0.000000
   32  O  1  X   -0.000000   0.005125  -0.000000   0.000000   0.000000
   33  O  1  Y    0.004652   0.000000  -0.000000   0.000000   0.000000
   34  O  1  Z    0.001821   0.000000  -0.000000   0.000000   0.000000
   35  O  1  X   -0.000000  -0.000190  -0.000000   0.000000   0.000000
   36  O  1  Y   -0.000172   0.000000  -0.000000   0.000000   0.000000
   37  O  1  Z   -0.000067   0.000000  -0.000000   0.000000   0.000000
   38  O  1 XX   -0.000000   0.000000  -0.000000   0.000000   0.000000
   39  O  1 YY   -0.000000   0.000000  -0.000000   0.000000   0.000000
   40  O  1 ZZ   -0.000000   0.000000  -0.000000   0.000000   0.000000
   41  O  1 XY   -0.000000   0.000000  -0.000000   0.000000   0.000000
   42  O  1 XZ   -0.000000   0.000000  -0.000000   0.000000   0.000000
   43  O  1 YZ   -0.000000   0.000000  -0.000000   0.000000   0.000000
   44  O  1 XX   -0.000000   0.000000  -0.000000   0.000000   0.000000
   45  O  1 YY   -0.000000   0.000000  -0.000000   0.000000   0.000000
   46  O  1 ZZ   -0.000000   0.000000  -0.000000   0.000000   0.000000
   47  O  1 XY   -0.000000   0.000000  -0.000000   0.000000   0.000000
   48  O  1 XZ   -0.000000   0.000000  -0.000000   0.000000   0.000000
   49  O  1 YZ   -0.000000   0.000000  -0.000000   0.000000   0.000000
   50  O  1 XX   -0.000000   0.000000  -0.000000   0.000000   0.000000
   51  O  1 YY   -0.000000   0.000000  -0.000000   0.000000   0.000000
   52  O  1 ZZ   -0.000000   0.000000  -0.000000   0.000000   0.000000
   53  O  1 XY   -0.000000   0.000000  -0.000000   0.000000   0.000000
   54  O  1 XZ   -0.000000   0.000000  -0.000000   0.000000   0.000000
   55  O  1 YZ   -0.000000   0.000000  -0.000000   0.000000   0.000000
   56  O  1 XX   -0.000000   0.000000  -0.000000   0.000000   0.000000
   57  O  1 YY   -0.000000   0.000000  -0.000000   0.000000   0.000000
   58  O  1 ZZ   -0.000000   0.000000  -0.000000   0.000000   0.000000
   59  O  1 XY   -0.000000   0.000000  -0.000000   0.000000   0.000000
   60  O  1 XZ   -0.000000   0.000000  -0.000000   0.000000   0.000000
   61  O  1 YZ   -0.000000   0.000000  -0.000000   0.000000   0.000000
   62  O  1 XX   -0.000000   0.000000  -0.000000   0.000000   0.000000
   63  O  1 YY   -0.000000   0.000000  -0.000000   0.000000   0.000000
   64  O  1 ZZ   -0.000000   0.000000  -0.000000   0.000000   0.000000
   65  O  1 XY   -0.000000   0.000000  -0.000000   0.000000   0.000000
   66  O  1 XZ   -0.000000   0.000000  -0.000000   0.000000   0.000000
   67  O  1 YZ   -0.000000   0.000000  -0.000000   0.000000   0.000000
   68  O  1 XX   -0.000000   0.000000  -0.000000   0.000000   0.000000
   69  O  1 YY   -0.000000   0.000000  -0.000000   0.000000   0.000000
   70  O  1 ZZ   -0.000000   0.000000  -0.000000   0.000000   0.000000
   71  O  1 XY   -0.000000   0.000000  -0.000000   0.000000   0.000000
   72  O  1 XZ   -0.000000   0.000000  -0.000000   0.000000   0.000000
   73  O  1 YZ   -0.000000   0.000000  -0.000000   0.000000   0.000000
   74  O  1 XX   -0.000000   0.000000  -0.000000   0.000000   0.000000
   75  O  1 YY   -0.000000   0.000000  -0.000000   0.000000   0.000000
   76  O  1 ZZ   -0.000000   0.000000  -0.000000   0.000000   0.000000
   77  O  1 XY   -0.000000   0.000000  -0.000000   0.000000   0.000000
   78  O  1 XZ   -0.000000   0.000000  -0.000000   0.000000   0.000000
   79  O  1 YZ   -0.000000   0.000000  -0.000000   0.000000   0.000000
   80  O  1 XXX  -0.000000   0.000156  -0.000000   0.000000   0.000000
   81  O  1 YYY  -0.000095   0.000000  -0.043417  -0.005337   0.000000
   82  O  1 ZZZ  -0.000037   0.000000   0.005337  -0.043417   0.000000
   83  O  1 XXY   0.000169   0.000000  -0.000000   0.000000   0.000000
   84  O  1 XXZ   0.000066   0.000000  -0.000000   0.000000   0.000000
   85  O  1 YYX  -0.000000  -0.000104  -0.000000   0.000000   0.005827
   86  O  1 YYZ  -0.000017   0.000000  -0.007160   0.058250   0.000000
   87  O  1 ZZX  -0.000000  -0.000104  -0.000000   0.000000  -0.005827
   88  O  1 ZZY  -0.000042   0.000000   0.058250   0.007160   0.000000
   89  O  1 XYZ  -0.000000   0.000000  -0.000000   0.000000   0.055367
   90  O  1 XXX  -0.000000   0.008404  -0.000000   0.000000   0.000000
   91  O  1 YYY  -0.003716   0.000000   0.172612   0.021218   0.000000
   92  O  1 ZZZ  -0.001455   0.000000  -0.021218   0.172612   0.000000
   93  O  1 XXY   0.006648   0.000000  -0.000000   0.000000   0.000000
   94  O  1 XXZ   0.002602   0.000000  -0.000000   0.000000   0.000000
   95  O  1 YYX  -0.000000  -0.005638  -0.000000   0.000000  -0.023248
   96  O  1 YYZ  -0.000651   0.000000   0.028467  -0.231583   0.000000
   97  O  1 ZZX  -0.000000  -0.005638  -0.000000   0.000000   0.023248
   98  O  1 ZZY  -0.001662   0.000000  -0.231583  -0.028467   0.000000
   99  O  1 XYZ  -0.000000   0.000000  -0.000000   0.000000  -0.220898
  100  O  1 XXX  -0.000000  -0.024599  -0.000000   0.000000   0.000000
  101  O  1 YYY   0.011042   0.000000  -0.874991  -0.107555   0.000000
  102  O  1 ZZZ   0.004322   0.000000   0.107555  -0.874991   0.000000
  103  O  1 XXY  -0.019753   0.000000  -0.000000   0.000000   0.000000
  104  O  1 XXZ  -0.007732   0.000000  -0.000000   0.000000   0.000000
  105  O  1 YYX  -0.000000   0.016502  -0.000000   0.000000   0.116631
  106  O  1 YYZ   0.001933   0.000000  -0.144301   1.173923   0.000000
  107  O  1 ZZX  -0.000000   0.016502  -0.000000   0.000000  -0.116631
  108  O  1 ZZY   0.004938   0.000000   1.173923   0.144301   0.000000
  109  O  1 XYZ  -0.000000   0.000000  -0.000000   0.000000   1.108191
  110  O  1 XXX  -0.000000   0.000167  -0.000000   0.000000   0.000000
  111  O  1 YYY  -0.000075   0.000000   0.003280   0.000403   0.000000
  112  O  1 ZZZ  -0.000029   0.000000  -0.000403   0.003280   0.000000
  113  O  1 XXY   0.000134   0.000000  -0.000000   0.000000   0.000000
  114  O  1 XXZ   0.000052   0.000000  -0.000000   0.000000   0.000000
  115  O  1 YYX  -0.000000  -0.000112  -0.000000   0.000000  -0.000441
  116  O  1 YYZ  -0.000013   0.000000   0.000541  -0.004401   0.000000
  117  O  1 ZZX  -0.000000  -0.000112  -0.000000   0.000000   0.000441
  118  O  1 ZZY  -0.000033   0.000000  -0.004401  -0.000541   0.000000
  119  O  1 XYZ  -0.000000   0.000000  -0.000000   0.000000  -0.004192
  120  O  1 XXX  -0.000000  -0.000016  -0.000000   0.000000   0.000000
  121  O  1 YYY   0.000007   0.000000  -0.000434  -0.000053   0.000000
  122  O  1 ZZZ   0.000003   0.000000   0.000053  -0.000434   0.000000
  123  O  1 XXY  -0.000012   0.000000  -0.000000   0.000000   0.000000
  124  O  1 XXZ  -0.000005   0.000000  -0.000000   0.000000   0.000000
  125  O  1 YYX  -0.000000   0.000010  -0.000000   0.000000   0.000058
  126  O  1 YYZ   0.000001   0.000000  -0.000072   0.000582   0.000000
  127  O  1 ZZX  -0.000000   0.000010  -0.000000   0.000000  -0.000058
  128  O  1 ZZY   0.000003   0.000000   0.000582   0.000072   0.000000
  129  O  1 XYZ  -0.000000   0.000000  -0.000000   0.000000   0.000554
  130  O  1XXXX  -0.000000   0.000000  -0.000000   0.000000   0.000000
  131  O  1YYYY  -0.000000   0.000000  -0.000000   0.000000   0.000000
  132  O  1ZZZZ  -0.000000   0.000000  -0.000000   0.000000   0.000000
  133  O  1XXXY  -0.000000   0.000000  -0.000000   0.000000   0.000000
  134  O  1XXXZ  -0.000000   0.000000  -0.000000   0.000000   0.000000
  135  O  1YYYX  -0.000000   0.000000  -0.000000   0.000000   0.000000
  136  O  1YYYZ  -0.000000   0.000000  -0.000000   0.000000   0.000000
  137  O  1ZZZX  -0.000000   0.000000  -0.000000   0.000000   0.000000
  138  O  1ZZZY  -0.000000   0.000000  -0.000000   0.000000   0.000000
  139  O  1XXYY  -0.000000   0.000000  -0.000000   0.000000   0.000000
  140  O  1XXZZ  -0.000000   0.000000  -0.000000   0.000000   0.000000
  141  O  1YYZZ  -0.000000   0.000000  -0.000000   0.000000   0.000000
  142  O  1XXYZ  -0.000000   0.000000  -0.000000   0.000000   0.000000
  143  O  1YYXZ  -0.000000   0.000000  -0.000000   0.000000   0.000000
  144  O  1ZZXY  -0.000000   0.000000  -0.000000   0.000000   0.000000
  145  O  1XXXX  -0.000000   0.000000  -0.000000   0.000000   0.000000
  146  O  1YYYY  -0.000000   0.000000  -0.000000   0.000000   0.000000
  147  O  1ZZZZ  -0.000000   0.000000  -0.000000   0.000000   0.000000
  148  O  1XXXY  -0.000000   0.000000  -0.000000   0.000000   0.000000
  149  O  1XXXZ  -0.000000   0.000000  -0.000000   0.000000   0.000000
  150  O  1YYYX  -0.000000   0.000000  -0.000000   0.000000   0.000000
  151  O  1YYYZ  -0.000000   0.000000  -0.000000   0.000000   0.000000
  152  O  1ZZZX  -0.000000   0.000000  -0.000000   0.000000   0.000000
  153  O  1ZZZY  -0.000000   0.000000  -0.000000   0.000000   0.000000
  154  O  1XXYY  -0.000000   0.000000  -0.000000   0.000000   0.000000
  155  O  1XXZZ  -0.000000   0.000000  -0.000000   0.000000   0.000000
  156  O  1YYZZ  -0.000000   0.000000  -0.000000   0.000000   0.000000
  157  O  1XXYZ  -0.000000   0.000000  -0.000000   0.000000   0.000000
  158  O  1YYXZ  -0.000000   0.000000  -0.000000   0.000000   0.000000
[...]
   75  O  1 YY   -0.000000  -0.000000  -0.000000  -0.000001
   76  O  1 ZZ   -0.000000  -0.000000  -0.000000  -0.000001
   77  O  1 XY   -0.000000  -0.000000  -0.000000  -0.000000
   78  O  1 XZ   -0.000000  -0.000000  -0.000000  -0.000000
   79  O  1 YZ   -0.000000  -0.000000  -0.000000  -0.000000
   80  O  1 XXX  -0.000000  -0.000000  -0.000003  -0.000000
   81  O  1 YYY   0.000000   0.000001  -0.000000  -0.000000
   82  O  1 ZZZ   0.000001  -0.000000  -0.000000  -0.000000
   83  O  1 XXY  -0.000000  -0.000003  -0.000000  -0.000000
   84  O  1 XXZ  -0.000003   0.000000  -0.000000  -0.000000
   85  O  1 YYX  -0.000000  -0.000000   0.000002  -0.000000
   86  O  1 YYZ   0.000001  -0.000000  -0.000000  -0.000000
   87  O  1 ZZX  -0.000000  -0.000000   0.000002  -0.000000
   88  O  1 ZZY   0.000000   0.000001  -0.000000  -0.000000
   89  O  1 XYZ  -0.000000  -0.000000  -0.000000  -0.000000
   90  O  1 XXX  -0.000000  -0.000000   0.000003  -0.000000
   91  O  1 YYY  -0.000000  -0.000001  -0.000000  -0.000000
   92  O  1 ZZZ  -0.000001   0.000000  -0.000000  -0.000000
   93  O  1 XXY   0.000000   0.000002  -0.000000  -0.000000
   94  O  1 XXZ   0.000002  -0.000000  -0.000000  -0.000000
   95  O  1 YYX  -0.000000  -0.000000  -0.000002  -0.000000
   96  O  1 YYZ  -0.000001   0.000000  -0.000000  -0.000000
   97  O  1 ZZX  -0.000000  -0.000000  -0.000002  -0.000000
   98  O  1 ZZY  -0.000000  -0.000001  -0.000000  -0.000000
   99  O  1 XYZ  -0.000000  -0.000000  -0.000000  -0.000000
  100  O  1 XXX  -0.000000  -0.000000  -0.000001  -0.000000
  101  O  1 YYY   0.000000   0.000001  -0.000000  -0.000000
  102  O  1 ZZZ   0.000001  -0.000000  -0.000000  -0.000000
  103  O  1 XXY  -0.000000  -0.000001  -0.000000  -0.000000
  104  O  1 XXZ  -0.000001   0.000000  -0.000000  -0.000000
  105  O  1 YYX  -0.000000  -0.000000   0.000001  -0.000000
  106  O  1 YYZ   0.000000  -0.000000  -0.000000  -0.000000
  107  O  1 ZZX  -0.000000  -0.000000   0.000001  -0.000000
  108  O  1 ZZY   0.000000   0.000000  -0.000000  -0.000000
  109  O  1 XYZ  -0.000000  -0.000000  -0.000000  -0.000000
  110  O  1 XXX  -0.000000  -0.000000   0.000003  -0.000000
  111  O  1 YYY  -0.000000  -0.000001  -0.000000  -0.000000
  112  O  1 ZZZ  -0.000001   0.000000  -0.000000  -0.000000
  113  O  1 XXY   0.000000   0.000002  -0.000000  -0.000000
  114  O  1 XXZ   0.000002  -0.000000  -0.000000  -0.000000
  115  O  1 YYX  -0.000000  -0.000000  -0.000002  -0.000000
  116  O  1 YYZ  -0.000001   0.000000  -0.000000  -0.000000
  117  O  1 ZZX  -0.000000  -0.000000  -0.000002  -0.000000
  118  O  1 ZZY  -0.000000  -0.000001  -0.000000  -0.000000
  119  O  1 XYZ  -0.000000  -0.000000  -0.000000  -0.000000
  120  O  1 XXX  -0.000000  -0.000000  -0.000002  -0.000000
  121  O  1 YYY   0.000000   0.000001  -0.000000  -0.000000
  122  O  1 ZZZ   0.000001  -0.000000  -0.000000  -0.000000
  123  O  1 XXY  -0.000000  -0.000001  -0.000000  -0.000000
  124  O  1 XXZ  -0.000001   0.000000  -0.000000  -0.000000
  125  O  1 YYX  -0.000000  -0.000000   0.000001  -0.000000
  126  O  1 YYZ   0.000000  -0.000000  -0.000000  -0.000000
  127  O  1 ZZX  -0.000000  -0.000000   0.000001  -0.000000
  128  O  1 ZZY   0.000000   0.000000  -0.000000  -0.000000
  129  O  1 XYZ  -0.000000  -0.000000  -0.000000  -0.000000
  130  O  1XXXX  -0.000000  -0.000000  -0.000000   0.000000
  131  O  1YYYY  -0.000000  -0.000000  -0.000000   0.000000
  132  O  1ZZZZ  -0.000000  -0.000000  -0.000000   0.000000
  133  O  1XXXY  -0.000000  -0.000000  -0.000000  -0.000000
  134  O  1XXXZ  -0.000000  -0.000000  -0.000000  -0.000000
  135  O  1YYYX  -0.000000  -0.000000  -0.000000  -0.000000
  136  O  1YYYZ  -0.000000  -0.000000  -0.000000  -0.000000
  137  O  1ZZZX  -0.000000  -0.000000  -0.000000  -0.000000
  138  O  1ZZZY  -0.000000  -0.000000  -0.000000  -0.000000
  139  O  1XXYY  -0.000000  -0.000000  -0.000000  -0.000000
  140  O  1XXZZ  -0.000000  -0.000000  -0.000000  -0.000000
  141  O  1YYZZ  -0.000000  -0.000000  -0.000000   0.000000
  142  O  1XXYZ  -0.000000  -0.000000  -0.000000  -0.000000
  143  O  1YYXZ  -0.000000  -0.000000  -0.000000  -0.000000
  144  O  1ZZXY  -0.000000  -0.000000  -0.000000  -0.000000
  145  O  1XXXX  -0.000000  -0.000000  -0.000000  -0.000000
  146  O  1YYYY  -0.000000  -0.000000  -0.000000  -0.000000
  147  O  1ZZZZ  -0.000000  -0.000000  -0.000000  -0.000000
  148  O  1XXXY  -0.000000  -0.000000  -0.000000  -0.000000
  149  O  1XXXZ  -0.000000  -0.000000  -0.000000  -0.000000
  150  O  1YYYX  -0.000000  -0.000000  -0.000000  -0.000000
  151  O  1YYYZ  -0.000000  -0.000000  -0.000000  -0.000000
  152  O  1ZZZX  -0.000000  -0.000000  -0.000000  -0.000000
  153  O  1ZZZY  -0.000000  -0.000000  -0.000000  -0.000000
  154  O  1XXYY  -0.000000  -0.000000  -0.000000   0.000000
  155  O  1XXZZ  -0.000000  -0.000000  -0.000000   0.000000
  156  O  1YYZZ  -0.000000  -0.000000  -0.000000  -0.000000
  157  O  1XXYZ  -0.000000  -0.000000  -0.000000  -0.000000
  158  O  1YYXZ  -0.000000  -0.000000  -0.000000  -0.000000
  159  O  1ZZXY  -0.000000  -0.000000  -0.000000  -0.000000
  160  O  1XXXX  -0.000000  -0.000000  -0.000000  -0.000000
  161  O  1YYYY  -0.000000  -0.000000  -0.000000  -0.000000
  162  O  1ZZZZ  -0.000000  -0.000000  -0.000000  -0.000000
  163  O  1XXXY  -0.000000  -0.000000  -0.000000  -0.000000
  164  O  1XXXZ  -0.000000  -0.000000  -0.000000  -0.000000
  165  O  1YYYX  -0.000000  -0.000000  -0.000000  -0.000000
  166  O  1YYYZ  -0.000000  -0.000000  -0.000000  -0.000000
  167  O  1ZZZX  -0.000000  -0.000000  -0.000000  -0.000000
  168  O  1ZZZY  -0.000000  -0.000000  -0.000000  -0.000000
  169  O  1XXYY  -0.000000  -0.000000  -0.000000   0.000000
  170  O  1XXZZ  -0.000000  -0.000000  -0.000000   0.000000
  171  O  1YYZZ  -0.000000  -0.000000  -0.000000  -0.000000
  172  O  1XXYZ  -0.000000  -0.000000  -0.000000  -0.000000
  173  O  1YYXZ  -0.000000  -0.000000  -0.000000  -0.000000
  174  O  1ZZXY  -0.000000  -0.000000  -0.000000  -0.000000
 ...... END OF UHF CALCULATION ......
 STEP CPU TIME =     2.37 TOTAL CPU TIME =        4.9 (    0.1 MIN)
 TOTAL WALL CLOCK TIME=        6.0 SECONDS, CPU UTILIZATION IS  81.03%

     ----------------------------------------------------------------
     PROPERTY VALUES FOR THE UHF   SELF-CONSISTENT FIELD WAVEFUNCTION
     ----------------------------------------------------------------

          -----------------
          ENERGY COMPONENTS
          -----------------

         WAVEFUNCTION NORMALIZATION =       1.0000000000

                ONE ELECTRON ENERGY =    -103.2538036527
                TWO ELECTRON ENERGY =      28.4350159277
           NUCLEAR REPULSION ENERGY =       0.0000000000
                                      ------------------
                       TOTAL ENERGY =     -74.8187877250

 ELECTRON-ELECTRON POTENTIAL ENERGY =      28.4350159277
  NUCLEUS-ELECTRON POTENTIAL ENERGY =    -178.0733799717
   NUCLEUS-NUCLEUS POTENTIAL ENERGY =       0.0000000000
                                      ------------------
             TOTAL POTENTIAL ENERGY =    -149.6383640439
               TOTAL KINETIC ENERGY =      74.8195763189
                 VIRIAL RATIO (V/T) =       1.9999894601

          ---------------------------------------
          MULLIKEN AND LOWDIN POPULATION ANALYSES
          ---------------------------------------

     ATOMIC MULLIKEN POPULATION IN EACH MOLECULAR ORBITAL
        ALPHA ORBITALS

                      1          2          3          4          5

                  1.000000   1.000000   1.000000   1.000000   1.000000

    1             1.000000   1.000000   1.000000   1.000000   1.000000

     ATOMIC MULLIKEN POPULATION IN EACH MOLECULAR ORBITAL
         BETA ORBITALS

                      1          2          3

                  1.000000   1.000000   1.000000

    1             1.000000   1.000000   1.000000

          MULLIKEN SPHERICAL HARMONIC POPULATIONS
       ATOM           S       P       D      F      G      H      I    TOTAL
    1 O             2.00    3.00    0.00   0.00   0.00   0.00   0.00    5.00

          MULLIKEN SPHERICAL HARMONIC POPULATIONS
       ATOM           S       P       D      F      G      H      I    TOTAL
    1 O             2.00    1.00    0.00   0.00   0.00   0.00   0.00    3.00

     ATOMIC SPIN POPULATION (ALPHA MINUS BETA)
       ATOM         MULL.POP.                    LOW.POP.
    1 O             2.000000                     2.000000


          ********* ALL ELECTRONS ********

               ----- POPULATIONS IN EACH AO -----
                             MULLIKEN      LOWDIN
              1  O  1  S      1.91132     0.22023
              2  O  1  S     -0.00494     0.21165
              3  O  1  S      0.09566     0.12354
              4  O  1  S      0.62667     0.16001
              5  O  1  S      1.01941     0.19465
              6  O  1  S      0.35030     0.16196
              7  O  1  S     -0.00002     0.19121
              8  O  1  S      0.00002     0.17494
              9  O  1  S      0.00000     0.13166
             10  O  1  S      0.00000     0.08952
             11  O  1  X      0.14284     0.07933
             12  O  1  Y      0.07734     0.04356
             13  O  1  Z      0.07734     0.04356
             14  O  1  X      0.39674     0.19299
             15  O  1  Y      0.21765     0.10557
             16  O  1  Z      0.21765     0.10557
             17  O  1  X      0.67687     0.26577
             18  O  1  Y      0.36668     0.14127
             19  O  1  Z      0.36668     0.14127
             20  O  1  X      0.59327     0.26274
             21  O  1  Y      0.28204     0.12132
             22  O  1  Z      0.28204     0.12132
             23  O  1  X      0.19011     0.16896
             24  O  1  Y      0.05615     0.05845
             25  O  1  Z      0.05615     0.05845
             26  O  1  X      0.00002     0.01542
             27  O  1  Y      0.00003     0.00842
             28  O  1  Z      0.00003     0.00842
             29  O  1  X     -0.00001     0.00189
             30  O  1  Y     -0.00000     0.00103
             31  O  1  Z     -0.00000     0.00103
             32  O  1  X      0.00000     0.00038
             33  O  1  Y      0.00000     0.00021
             34  O  1  Z      0.00000     0.00021
             35  O  1  X     -0.00000     0.00004
             36  O  1  Y     -0.00000     0.00002
             37  O  1  Z     -0.00000     0.00002
             38  O  1 XX      0.00000     0.04980
             39  O  1 YY      0.00001     0.04948
             40  O  1 ZZ      0.00000     0.04948
             41  O  1 XY      0.00000     0.00000
             42  O  1 XZ      0.00000     0.00000
             43  O  1 YZ      0.00000     0.00000
             44  O  1 XX      0.00006     0.08445
             45  O  1 YY      0.00019     0.08388
             46  O  1 ZZ      0.00000     0.08388
             47  O  1 XY      0.00000     0.00000
             48  O  1 XZ      0.00000     0.00000
             49  O  1 YZ      0.00000     0.00000
             50  O  1 XX      0.00017     0.09691
             51  O  1 YY      0.00052     0.09488
             52  O  1 ZZ      0.00000     0.09488
             53  O  1 XY      0.00000     0.00000
             54  O  1 XZ      0.00000     0.00000
             55  O  1 YZ      0.00000     0.00000
             56  O  1 XX      0.00016     0.05840
             57  O  1 YY      0.00047     0.05328
             58  O  1 ZZ      0.00000     0.05328
             59  O  1 XY      0.00000     0.00000
             60  O  1 XZ      0.00000     0.00000
             61  O  1 YZ      0.00000     0.00000
             62  O  1 XX      0.00000     0.06897
             63  O  1 YY      0.00000     0.06907
             64  O  1 ZZ      0.00000     0.06907
             65  O  1 XY      0.00000     0.00000
             66  O  1 XZ      0.00000     0.00000
             67  O  1 YZ      0.00000     0.00000
             68  O  1 XX      0.00000     0.07576
             69  O  1 YY      0.00000     0.07580
             70  O  1 ZZ      0.00000     0.07580
             71  O  1 XY      0.00000     0.00000
             72  O  1 XZ      0.00000     0.00000
             73  O  1 YZ      0.00000     0.00000
             74  O  1 XX      0.00000     0.05980
             75  O  1 YY      0.00000     0.05981
             76  O  1 ZZ      0.00000     0.05981
             77  O  1 XY      0.00000     0.00000
             78  O  1 XZ      0.00000     0.00000
             79  O  1 YZ      0.00000     0.00000
             80  O  1 XXX     0.00001     0.14272
             81  O  1 YYY     0.00000     0.07943
             82  O  1 ZZZ     0.00000     0.07943
             83  O  1 XXY     0.00000     0.03230
             84  O  1 XXZ     0.00000     0.03230
             85  O  1 YYX     0.00000     0.06112
             86  O  1 YYZ     0.00001     0.03341
             87  O  1 ZZX     0.00000     0.06112
             88  O  1 ZZY     0.00000     0.03341
             89  O  1 XYZ     0.00000     0.00000
             90  O  1 XXX     0.00003     0.20090
             91  O  1 YYY     0.00002     0.11013
             92  O  1 ZZZ     0.00002     0.11013
             93  O  1 XXY     0.00001     0.04279
             94  O  1 XXZ     0.00000     0.04279
             95  O  1 YYX     0.00000     0.08604
             96  O  1 YYZ     0.00003     0.04566
             97  O  1 ZZX     0.00000     0.08604
             98  O  1 ZZY     0.00000     0.04566
             99  O  1 XYZ     0.00000     0.00000
            100  O  1 XXX     0.00006     0.17212
            101  O  1 YYY     0.00004     0.08260
            102  O  1 ZZZ     0.00004     0.08260
            103  O  1 XXY     0.00002     0.03182
            104  O  1 XXZ     0.00000     0.03182
            105  O  1 YYX     0.00000     0.07639
            106  O  1 YYZ     0.00006     0.03488
            107  O  1 ZZX     0.00000     0.07639
            108  O  1 ZZY     0.00000     0.03488
            109  O  1 XYZ     0.00000     0.00000
            110  O  1 XXX     0.00000     0.02520
            111  O  1 YYY     0.00000     0.01384
            112  O  1 ZZZ     0.00000     0.01384
            113  O  1 XXY     0.00000     0.00592
            114  O  1 XXZ     0.00000     0.00592
            115  O  1 YYX     0.00000     0.01094
            116  O  1 YYZ     0.00000     0.00598
            117  O  1 ZZX     0.00000     0.01094
            118  O  1 ZZY     0.00000     0.00598
            119  O  1 XYZ     0.00000     0.00000
            120  O  1 XXX    -0.00000     0.00137
            121  O  1 YYY    -0.00000     0.00074
            122  O  1 ZZZ    -0.00000     0.00074
            123  O  1 XXY    -0.00000     0.00033
            124  O  1 XXZ    -0.00000     0.00033
            125  O  1 YYX     0.00000     0.00061
            126  O  1 YYZ    -0.00000     0.00033
            127  O  1 ZZX     0.00000     0.00061
            128  O  1 ZZY     0.00000     0.00033
            129  O  1 XYZ     0.00000     0.00000
            130  O  1XXXX     0.00000     0.05333
            131  O  1YYYY     0.00000     0.05285
            132  O  1ZZZZ     0.00000     0.05285
            133  O  1XXXY     0.00000     0.00000
            134  O  1XXXZ     0.00000     0.00000
            135  O  1YYYX     0.00000     0.00000
            136  O  1YYYZ     0.00000     0.00000
            137  O  1ZZZX     0.00000     0.00000
            138  O  1ZZZY     0.00000     0.00000
            139  O  1XXYY     0.00000     0.05552
            140  O  1XXZZ     0.00000     0.05552
            141  O  1YYZZ     0.00000     0.05535
            142  O  1XXYZ     0.00000     0.00000
            143  O  1YYXZ     0.00000     0.00000
            144  O  1ZZXY     0.00000     0.00000
            145  O  1XXXX     0.00000     0.05274
            146  O  1YYYY     0.00000     0.05075
            147  O  1ZZZZ     0.00000     0.05075
            148  O  1XXXY     0.00000     0.00000
            149  O  1XXXZ     0.00000     0.00000
            150  O  1YYYX     0.00000     0.00000
            151  O  1YYYZ     0.00000     0.00000
            152  O  1ZZZX     0.00000     0.00000
            153  O  1ZZZY     0.00000     0.00000
            154  O  1XXYY     0.00000     0.05394
            155  O  1XXZZ     0.00000     0.05394
            156  O  1YYZZ     0.00000     0.05305
            157  O  1XXYZ     0.00000     0.00000
            158  O  1YYXZ     0.00000     0.00000
            159  O  1ZZXY     0.00000     0.00000
            160  O  1XXXX     0.00000     0.03632
            161  O  1YYYY     0.00000     0.03637
            162  O  1ZZZZ     0.00000     0.03637
            163  O  1XXXY     0.00000     0.00000
            164  O  1XXXZ     0.00000     0.00000
            165  O  1YYYX     0.00000     0.00000
            166  O  1YYYZ     0.00000     0.00000
            167  O  1ZZZX     0.00000     0.00000
            168  O  1ZZZY     0.00000     0.00000
            169  O  1XXYY     0.00000     0.04148
            170  O  1XXZZ     0.00000     0.04148
            171  O  1YYZZ     0.00000     0.04151
            172  O  1XXYZ     0.00000     0.00000
            173  O  1YYXZ     0.00000     0.00000
            174  O  1ZZXY     0.00000     0.00000

          ----- MULLIKEN ATOMIC OVERLAP POPULATIONS -----
          (OFF-DIAGONAL ELEMENTS NEED TO BE MULTIPLIED BY 2)

             1

    1    8.0000000

          TOTAL MULLIKEN AND LOWDIN ATOMIC POPULATIONS
       ATOM         MULL.POP.    CHARGE          LOW.POP.     CHARGE
    1 O             8.000000    0.000000         8.000000   -0.000000

          MULLIKEN SPHERICAL HARMONIC POPULATIONS
       ATOM           S       P       D      F      G      H      I    TOTAL
    1 O             4.00    4.00    0.00   0.00   0.00   0.00   0.00    8.00

          -------------------------------
          BOND ORDER AND VALENCE ANALYSIS     BOND ORDER THRESHOLD=0.050
          -------------------------------

                   BOND                       BOND                       BOND
  ATOM PAIR DIST  ORDER      ATOM PAIR DIST  ORDER      ATOM PAIR DIST  ORDER

                       TOTAL       BONDED        FREE
      ATOM            VALENCE     VALENCE     VALENCE
    1 O                 2.018       0.000       2.018

          -----------------------------------------
          ATOMIC SPIN DENSITY AT THE NUCLEUS (A.U.)
          -----------------------------------------
                            SPIN DENS    ALPHA DENS     BETA DENS
    1  O            8.0     0.1830899     154.11968     153.93659

          ---------------------
          ELECTROSTATIC MOMENTS
          ---------------------

 POINT   1           X           Y           Z (BOHR)    CHARGE
                 0.000000    0.000000    0.000000       -0.00 (A.U.)
         DX          DY          DZ         /D/  (DEBYE)
    -0.000000   -0.000000   -0.000000    0.000000
 ...... END OF PROPERTY EVALUATION ......
 STEP CPU TIME =     0.07 TOTAL CPU TIME =        4.9 (    0.1 MIN)
 TOTAL WALL CLOCK TIME=        6.1 SECONDS, CPU UTILIZATION IS  81.38%
               580000  WORDS OF DYNAMIC MEMORY USED
 EXECUTION OF GAMESS TERMINATED NORMALLY Wed Feb 17 22:04:37 2016
 DDI: 263640 bytes (0.3 MB / 0 MWords) used by master data server.

 ----------------------------------------
 CPU timing information for all processes
 ========================================
 0: 4.540 + 0.408 = 4.948
 ----------------------------------------
 ddikick.x: exited gracefully.
----- accounting info -----
Files used on the master node sven were:
-rw-rw-r-- 1 mdewing mdewing      3204 Feb 17 22:04 /mnt/stripe/mdewing/scr/gms.F05
-rw-rw-r-- 1 mdewing mdewing 178575872 Feb 17 22:04 /mnt/stripe/mdewing/scr/gms.F08
-rw-rw-r-- 1 mdewing mdewing   4908000 Feb 17 22:04 /mnt/stripe/mdewing/scr/gms.F10
Wed Feb 17 22:04:40 CST 2016
0.100u 0.056s 0:09.29 1.6%	0+0k 0+16io 0pf+0w
