
     Program PWSCF v.5.0        starts on 27May2016 at 18:55:54 

     This program is part of the open-source Quantum ESPRESSO suite
     for quantum simulation of materials; please cite
         "P. Giannozzi et al., J. Phys.:Condens. Matter 21 395502 (2009);
          URL http://www.quantum-espresso.org", 
     in publications or presentations arising from this work. More details at
     http://www.quantum-espresso.org/quote.php

     Parallel version (MPI), running on   512 processors
     R & G space division:  proc/pool =  512

     Current dimensions of program PWSCF are:
     Max number of different atomic species (ntypx) = 10
     Max number of k-points (npk) =  40000
     Max angular momentum in pseudopotentials (lmaxx) =  3
     Reading input from dft.in

     IMPORTANT: XC functional enforced from input :
     Exchange-correlation      = LDA ( 1 1 0 0 0)
     EXX-fraction              =        0.00
     Any further DFT definition will be discarded
     Please, verify this is what you really want

               file O.BFD.upf: wavefunction(s)  0s 0p renormalized

     Subspace diagonalization in iterative solution of the eigenvalue problem:
     a serial algorithm will be used

 
     Parallelization info
     --------------------
     sticks:   dense  smooth     PW     G-vecs:    dense   smooth      PW
     Min          44      44     11                 5032     5032     625
     Max          45      45     12                 5043     5043     635
     Sum       22733   22733   5689              2578383  2578383  322453
 


     bravais-lattice index     =            0
     lattice parameter (alat)  =       1.0000  a.u.
     unit-cell volume          =    6748.3346 (a.u.)^3
     number of atoms/cell      =            2
     number of atomic types    =            1
     number of electrons       =        12.00 (up:   7.00, down:   5.00)
     number of Kohn-Sham states=           11
     kinetic-energy cutoff     =     200.0000  Ry
     charge density cutoff     =     800.0000  Ry
     convergence threshold     =      1.0E-07
     mixing beta               =       0.7000
     number of iterations used =            8  plain     mixing
     Exchange-correlation      = LDA ( 1 1 0 0 0)
     EXX-fraction              =        0.00

     celldm(1)=   1.000000  celldm(2)=   0.000000  celldm(3)=   0.000000
     celldm(4)=   0.000000  celldm(5)=   0.000000  celldm(6)=   0.000000

     crystal axes: (cart. coord. in units of alat)
               a(1) = (  18.897261   0.000000   0.000000 )  
               a(2) = (   0.000000  18.897261   0.000000 )  
               a(3) = (   0.000000   0.000000  18.897261 )  

     reciprocal axes: (cart. coord. in units 2 pi/alat)
               b(1) = (  0.052918  0.000000  0.000000 )  
               b(2) = (  0.000000  0.052918  0.000000 )  
               b(3) = (  0.000000  0.000000  0.052918 )  


     PseudoPot. # 1 for O  read from file:
     ./O.BFD.upf
     MD5 check sum: e50a3faf6d087c8e93bb07d695ababf7
     Pseudo is Norm-conserving, Zval =  6.0
     Generated by new atomic code, or converted to UPF format
     Using radial grid of 2000 points,  1 beta functions with: 
                l(1) =   0

     atomic species   valence    mass     pseudopotential
        O              6.00    15.99900     O ( 1.00)

     Starting magnetic structure 
     atomic species   magnetization
        O            0.000

     No symmetry found


                                    s                        frac. trans.

      isym =  1     identity                                     

 cryst.   s( 1) = (     1          0          0      )
                  (     0          1          0      )
                  (     0          0          1      )

 cart.    s( 1) = (  1.0000000  0.0000000  0.0000000 )
                  (  0.0000000  1.0000000  0.0000000 )
                  (  0.0000000  0.0000000  1.0000000 )


     point group C_1 (1)    
     there are  1 classes
     the character table:

       E    
A      1.00

     the symmetry operations in each class:
     E        1

   Cartesian axes

     site n.     atom                  positions (alat units)
         1           O   tau(   1) = (   8.4218858   9.4486307   9.4486307  )
         2           O   tau(   2) = (  10.4753756   9.4486307   9.4486307  )

   Crystallographic axes

     site n.     atom                  positions (cryst. coord.)
         1           O   tau(   1) = (  0.4456670  0.5000000  0.5000000  )
         2           O   tau(   2) = (  0.5543330  0.5000000  0.5000000  )

     number of k points=     2  Fermi-Dirac smearing, width (Ry)=  0.0001
                       cart. coord. in units 2pi/alat
        k(    1) = (   0.0000000   0.0000000   0.0000000), wk =   1.0000000
        k(    2) = (   0.0000000   0.0000000   0.0000000), wk =   1.0000000

                       cryst. coord.
        k(    1) = (   0.0000000   0.0000000   0.0000000), wk =   1.0000000
        k(    2) = (   0.0000000   0.0000000   0.0000000), wk =   1.0000000

     Dense  grid:  2578383 G-vectors     FFT dimensions: ( 176, 176, 176)

     Largest allocated arrays     est. size (Mb)     dimensions
        Kohn-Sham Wavefunctions         0.11 Mb     (    635,   11)
        NL pseudopotentials             0.02 Mb     (    635,    2)
        Each V/rho on FFT grid          0.95 Mb     (  30976,   2)
        Each G-vector array             0.04 Mb     (   5034)
        G-vector shells                 0.02 Mb     (   1978)
     Largest temporary arrays     est. size (Mb)     dimensions
        Auxiliary wavefunctions         0.43 Mb     (    635,   44)
        Each subspace H/S matrix        0.03 Mb     (  44,  44)
        Each <psi_i|beta_j> matrix      0.00 Mb     (      2,   11)
        Arrays for rho mixing           3.78 Mb     (  30976,   8)

     Initial potential from superposition of free atoms

     starting charge    0.95494, renormalised to   12.00000

     negative rho (up, down):  0.425E-03 0.425E-03
     Starting wfc are    8 randomized atomic wfcs

     total cpu time spent up to now is       18.6 secs

     per-process dynamical memory:    18.4 Mb

     Self-consistent Calculation

     iteration #  1     ecut=   200.00 Ry     beta=0.70
     Davidson diagonalization with overlap
     ethr =  1.00E-02,  avg # of iterations =  8.0

     negative rho (up, down):  0.116E-03 0.123E-03

     total cpu time spent up to now is       27.6 secs

     total energy              =     -63.61839178 Ry
     Harris-Foulkes estimate   =     -63.59163913 Ry
     estimated scf accuracy    <       0.12906180 Ry

     total magnetization       =     2.00 Bohr mag/cell
     absolute magnetization    =     2.00 Bohr mag/cell

     iteration #  2     ecut=   200.00 Ry     beta=0.70
     Davidson diagonalization with overlap
     ethr =  1.08E-03,  avg # of iterations =  2.0

     negative rho (up, down):  0.261E-04 0.319E-04

     total cpu time spent up to now is       35.7 secs

     total energy              =     -63.64048677 Ry
     Harris-Foulkes estimate   =     -63.63520757 Ry
     estimated scf accuracy    <       0.01043830 Ry

     total magnetization       =     2.00 Bohr mag/cell
     absolute magnetization    =     2.02 Bohr mag/cell

     iteration #  3     ecut=   200.00 Ry     beta=0.70
     Davidson diagonalization with overlap
     ethr =  8.70E-05,  avg # of iterations =  3.5

     total cpu time spent up to now is       44.1 secs

     total energy              =     -63.64280182 Ry
     Harris-Foulkes estimate   =     -63.64225243 Ry
     estimated scf accuracy    <       0.00179287 Ry

     total magnetization       =     2.00 Bohr mag/cell
     absolute magnetization    =     2.02 Bohr mag/cell

     iteration #  4     ecut=   200.00 Ry     beta=0.70
     Davidson diagonalization with overlap
     ethr =  1.49E-05,  avg # of iterations =  1.5

     negative rho (up, down):  0.413E-06 0.932E-06

     total cpu time spent up to now is       52.2 secs

     total energy              =     -63.64310282 Ry
     Harris-Foulkes estimate   =     -63.64308702 Ry
     estimated scf accuracy    <       0.00004123 Ry

     total magnetization       =     2.00 Bohr mag/cell
     absolute magnetization    =     2.03 Bohr mag/cell

     iteration #  5     ecut=   200.00 Ry     beta=0.70
     Davidson diagonalization with overlap
     ethr =  3.44E-07,  avg # of iterations =  3.0

     total cpu time spent up to now is       60.4 secs

     total energy              =     -63.64311539 Ry
     Harris-Foulkes estimate   =     -63.64311342 Ry
     estimated scf accuracy    <       0.00000096 Ry

     total magnetization       =     2.00 Bohr mag/cell
     absolute magnetization    =     2.03 Bohr mag/cell

     iteration #  6     ecut=   200.00 Ry     beta=0.70
     Davidson diagonalization with overlap
     ethr =  8.01E-09,  avg # of iterations =  2.0

     total cpu time spent up to now is       61.9 secs

     End of self-consistent calculation

 ------ SPIN UP ------------


          k = 0.0000 0.0000 0.0000 (322453 PWs)   bands (ev):

   -35.4529 -19.0981 -14.8470 -14.8470 -13.9442  -5.5300  -5.5300  -0.1980
     1.1581   1.2057   1.2057

     occupation numbers 
     1.0000   1.0000   1.0000   1.0000   1.0000   1.0000   1.0000   0.0000
     0.0000   0.0000   0.0000

 ------ SPIN DOWN ----------


          k = 0.0000 0.0000 0.0000 (322453 PWs)   bands (ev):

   -34.1771 -17.3290 -13.0751 -13.0751 -12.6960  -3.4044  -3.4044  -0.1454
     1.2295   1.2587   1.2587

     occupation numbers 
     1.0000   1.0000   1.0000   1.0000   1.0000   0.0000   0.0000   0.0000
     0.0000   0.0000   0.0000

     the spin up/dw Fermi energies are    -3.3282   -7.9179 ev

!    total energy              =     -63.64311582 Ry
     Harris-Foulkes estimate   =     -63.64311581 Ry
     estimated scf accuracy    <       0.00000002 Ry

     The total energy is the sum of the following terms:

     one-electron contribution =    -130.32026916 Ry
     hartree contribution      =      66.75166597 Ry
     xc contribution           =     -13.61202160 Ry
     ewald contribution        =      13.53750898 Ry
     smearing contrib. (-TS)   =       0.00000000 Ry

     total magnetization       =     2.00 Bohr mag/cell
     absolute magnetization    =     2.03 Bohr mag/cell

     convergence has been achieved in   6 iterations

     Forces acting on atoms (Ry/au):

     atom    1 type  1   force =    -0.56976974    0.00000002   -0.00000002
     atom    2 type  1   force =     0.56976974   -0.00000002    0.00000002
     The non-local contrib.  to forces
     atom    1 type  1   force =     4.48068808    0.00000000   -0.00000010
     atom    2 type  1   force =    -4.48068736   -0.00000005   -0.00000006
     The ionic contribution  to forces
     atom    1 type  1   force =   -16.97947520    0.00000000    0.00000000
     atom    2 type  1   force =    16.97947520    0.00000000    0.00000000
     The local contribution  to forces
     atom    1 type  1   force =    11.92900697   -0.00000001    0.00000016
     atom    2 type  1   force =   -11.92901541    0.00000000    0.00000016
     The core correction contribution to forces
     atom    1 type  1   force =     0.00000000    0.00000000    0.00000000
     atom    2 type  1   force =     0.00000000    0.00000000    0.00000000
     The Hubbard contrib.    to forces
     atom    1 type  1   force =     0.00000000    0.00000000    0.00000000
     atom    2 type  1   force =     0.00000000    0.00000000    0.00000000
     The SCF correction term to forces
     atom    1 type  1   force =     0.00000688    0.00000000   -0.00000001
     atom    2 type  1   force =    -0.00000621    0.00000000   -0.00000001

     Total force =     0.805776     Total SCF correction =     0.000009


     entering subroutine stress ...

          total   stress  (Ry/bohr**3)                   (kbar)     P=    7.03
   0.00016347   0.00000000   0.00000000         24.05      0.00      0.00
   0.00000000  -0.00001010   0.00000000          0.00     -1.49      0.00
   0.00000000   0.00000000  -0.00001010          0.00      0.00     -1.49

     kinetic stress (kbar)    644.81      0.00      0.00
                                0.00    740.31      0.00
                                0.00      0.00    740.31

     local   stress (kbar)  -2017.14      0.00      0.00
                                0.00  -1052.84      0.00
                                0.00      0.00  -1052.84

     nonloc. stress (kbar)    184.46      0.00      0.00
                                0.00    180.56      0.00
                                0.00      0.00    180.56

     hartree stress (kbar)    693.02      0.00      0.00
                                0.00    381.04      0.00
                                0.00      0.00    381.04

     exc-cor stress (kbar)    -92.44      0.00      0.00
                                0.00    -92.44      0.00
                                0.00      0.00    -92.44

     corecor stress (kbar)      0.00      0.00      0.00
                                0.00      0.00      0.00
                                0.00      0.00      0.00

     ewald   stress (kbar)    611.33      0.00      0.00
                                0.00   -158.12      0.00
                                0.00      0.00   -158.12

     hubbard stress (kbar)      0.00      0.00      0.00
                                0.00      0.00      0.00
                                0.00      0.00      0.00

     london  stress (kbar)      0.00      0.00      0.00
                                0.00      0.00      0.00
                                0.00      0.00      0.00

     dft-nl  stress (kbar)      0.00      0.00      0.00
                                0.00      0.00      0.00
                                0.00      0.00      0.00



     Writing output data file pwscf.save
 
     init_run     :     17.46s CPU     17.46s WALL (       1 calls)
     electrons    :     43.30s CPU     43.30s WALL (       1 calls)
     forces       :      0.85s CPU      0.85s WALL (       1 calls)
     stress       :      0.53s CPU      0.53s WALL (       1 calls)

     Called by init_run:
     wfcinit      :      0.49s CPU      0.49s WALL (       1 calls)
     potinit      :      0.68s CPU      0.68s WALL (       1 calls)

     Called by electrons:
     c_bands      :      7.45s CPU      7.45s WALL (       6 calls)
     sum_band     :      1.59s CPU      1.59s WALL (       6 calls)
     v_of_rho     :      0.53s CPU      0.53s WALL (       7 calls)
     v_h          :      0.09s CPU      0.09s WALL (       7 calls)
     v_xc         :      0.45s CPU      0.45s WALL (       7 calls)
     mix_rho      :      0.15s CPU      0.15s WALL (       6 calls)

     Called by c_bands:
     init_us_2    :      0.01s CPU      0.01s WALL (      30 calls)
     cegterg      :      7.38s CPU      7.38s WALL (      12 calls)

     Called by sum_band:

     Called by *egterg:
     h_psi        :      7.50s CPU      7.50s WALL (      54 calls)
     g_psi        :      0.03s CPU      0.03s WALL (      40 calls)
     cdiaghg      :      0.17s CPU      0.17s WALL (      52 calls)
     cegterg:over :      0.05s CPU      0.05s WALL (      40 calls)
     cegterg:upda :      0.04s CPU      0.04s WALL (      40 calls)
     cegterg:last :      0.01s CPU      0.01s WALL (      14 calls)

     Called by h_psi:
     h_psi:vloc   :      7.47s CPU      7.47s WALL (      54 calls)
     h_psi:vnl    :      0.03s CPU      0.03s WALL (      54 calls)
     add_vuspsi   :      0.01s CPU      0.01s WALL (      54 calls)

     General routines
     calbec       :      0.27s CPU      0.27s WALL (      58 calls)
     fft          :      0.79s CPU      0.79s WALL (      52 calls)
     fftw         :      8.41s CPU      8.41s WALL (     934 calls)
 
     Parallel routines
     fft_scatter  :      1.67s CPU      1.67s WALL (     986 calls)
     EXX routines
 
     PWSCF        :  1m26.99s CPU     1m26.99s WALL

 
   This run was terminated on:  18:57:21  27May2016            

=------------------------------------------------------------------------------=
   JOB DONE.
=------------------------------------------------------------------------------=
