
     Program PWSCF v.5.0        starts on  6Jun2016 at 19:45:13 

     This program is part of the open-source Quantum ESPRESSO suite
     for quantum simulation of materials; please cite
         "P. Giannozzi et al., J. Phys.:Condens. Matter 21 395502 (2009);
          URL http://www.quantum-espresso.org", 
     in publications or presentations arising from this work. More details at
     http://www.quantum-espresso.org/quote.php

     Parallel version (MPI), running on   512 processors
     R & G space division:  proc/pool =  512

     Current dimensions of program PWSCF are:
     Max number of different atomic species (ntypx) = 10
     Max number of k-points (npk) =  40000
     Max angular momentum in pseudopotentials (lmaxx) =  3
     Reading input from dft.in

     IMPORTANT: XC functional enforced from input :
     Exchange-correlation      = LDA ( 1 1 0 0 0)
     EXX-fraction              =        0.00
     Any further DFT definition will be discarded
     Please, verify this is what you really want

               file O.BFD.upf: wavefunction(s)  0s 0p renormalized

     Subspace diagonalization in iterative solution of the eigenvalue problem:
     a serial algorithm will be used

 
     Parallelization info
     --------------------
     sticks:   dense  smooth     PW     G-vecs:    dense   smooth      PW
     Min          66      66     16                 9248     9248    1148
     Max          67      67     17                 9261     9261    1165
     Sum       34109   34109   8529              4738093  4738093  591889
 


     bravais-lattice index     =            0
     lattice parameter (alat)  =       1.0000  a.u.
     unit-cell volume          =    6748.3346 (a.u.)^3
     number of atoms/cell      =            2
     number of atomic types    =            1
     number of electrons       =        12.00 (up:   7.00, down:   5.00)
     number of Kohn-Sham states=           11
     kinetic-energy cutoff     =     300.0000  Ry
     charge density cutoff     =    1200.0000  Ry
     convergence threshold     =      1.0E-07
     mixing beta               =       0.7000
     number of iterations used =            8  plain     mixing
     Exchange-correlation      = LDA ( 1 1 0 0 0)
     EXX-fraction              =        0.00

     celldm(1)=   1.000000  celldm(2)=   0.000000  celldm(3)=   0.000000
     celldm(4)=   0.000000  celldm(5)=   0.000000  celldm(6)=   0.000000

     crystal axes: (cart. coord. in units of alat)
               a(1) = (  18.897261   0.000000   0.000000 )  
               a(2) = (   0.000000  18.897261   0.000000 )  
               a(3) = (   0.000000   0.000000  18.897261 )  

     reciprocal axes: (cart. coord. in units 2 pi/alat)
               b(1) = (  0.052918  0.000000  0.000000 )  
               b(2) = (  0.000000  0.052918  0.000000 )  
               b(3) = (  0.000000  0.000000  0.052918 )  


     PseudoPot. # 1 for O  read from file:
     ./O.BFD.upf
     MD5 check sum: e50a3faf6d087c8e93bb07d695ababf7
     Pseudo is Norm-conserving, Zval =  6.0
     Generated by new atomic code, or converted to UPF format
     Using radial grid of 2000 points,  1 beta functions with: 
                l(1) =   0

     atomic species   valence    mass     pseudopotential
        O              6.00    15.99900     O ( 1.00)

     Starting magnetic structure 
     atomic species   magnetization
        O            0.000

     No symmetry found


                                    s                        frac. trans.

      isym =  1     identity                                     

 cryst.   s( 1) = (     1          0          0      )
                  (     0          1          0      )
                  (     0          0          1      )

 cart.    s( 1) = (  1.0000000  0.0000000  0.0000000 )
                  (  0.0000000  1.0000000  0.0000000 )
                  (  0.0000000  0.0000000  1.0000000 )


     point group C_1 (1)    
     there are  1 classes
     the character table:

       E    
A      1.00

     the symmetry operations in each class:
     E        1

   Cartesian axes

     site n.     atom                  positions (alat units)
         1           O   tau(   1) = (   8.4218858   9.4486307   9.4486307  )
         2           O   tau(   2) = (  10.4753756   9.4486307   9.4486307  )

   Crystallographic axes

     site n.     atom                  positions (cryst. coord.)
         1           O   tau(   1) = (  0.4456670  0.5000000  0.5000000  )
         2           O   tau(   2) = (  0.5543330  0.5000000  0.5000000  )

     number of k points=     2  Fermi-Dirac smearing, width (Ry)=  0.0001
                       cart. coord. in units 2pi/alat
        k(    1) = (   0.0000000   0.0000000   0.0000000), wk =   1.0000000
        k(    2) = (   0.0000000   0.0000000   0.0000000), wk =   1.0000000

                       cryst. coord.
        k(    1) = (   0.0000000   0.0000000   0.0000000), wk =   1.0000000
        k(    2) = (   0.0000000   0.0000000   0.0000000), wk =   1.0000000

     Dense  grid:  4738093 G-vectors     FFT dimensions: ( 220, 220, 220)

     Largest allocated arrays     est. size (Mb)     dimensions
        Kohn-Sham Wavefunctions         0.20 Mb     (   1165,   11)
        NL pseudopotentials             0.04 Mb     (   1165,    2)
        Each V/rho on FFT grid          1.48 Mb     (  48400,   2)
        Each G-vector array             0.07 Mb     (   9259)
        G-vector shells                 0.03 Mb     (   3411)
     Largest temporary arrays     est. size (Mb)     dimensions
        Auxiliary wavefunctions         0.78 Mb     (   1165,   44)
        Each subspace H/S matrix        0.03 Mb     (  44,  44)
        Each <psi_i|beta_j> matrix      0.00 Mb     (      2,   11)
        Arrays for rho mixing           5.91 Mb     (  48400,   8)

     Initial potential from superposition of free atoms

     starting charge    0.95494, renormalised to   12.00000

     negative rho (up, down):  0.210E-04 0.210E-04
     Starting wfc are    8 randomized atomic wfcs

     total cpu time spent up to now is       32.2 secs

     per-process dynamical memory:    18.4 Mb

     Self-consistent Calculation

     iteration #  1     ecut=   300.00 Ry     beta=0.70
     Davidson diagonalization with overlap
     ethr =  1.00E-02,  avg # of iterations =  8.0

     negative rho (up, down):  0.505E-05 0.547E-05

     total cpu time spent up to now is       48.1 secs

     total energy              =     -63.63533400 Ry
     Harris-Foulkes estimate   =     -63.60991087 Ry
     estimated scf accuracy    <       0.13108493 Ry

     total magnetization       =     2.00 Bohr mag/cell
     absolute magnetization    =     2.00 Bohr mag/cell

     iteration #  2     ecut=   300.00 Ry     beta=0.70
     Davidson diagonalization with overlap
     ethr =  1.09E-03,  avg # of iterations =  2.0

     negative rho (up, down):  0.987E-06 0.134E-05

     total cpu time spent up to now is       62.6 secs

     total energy              =     -63.65784818 Ry
     Harris-Foulkes estimate   =     -63.65284467 Ry
     estimated scf accuracy    <       0.01071986 Ry

     total magnetization       =     2.00 Bohr mag/cell
     absolute magnetization    =     2.02 Bohr mag/cell

     iteration #  3     ecut=   300.00 Ry     beta=0.70
     Davidson diagonalization with overlap
     ethr =  8.93E-05,  avg # of iterations =  3.5

     total cpu time spent up to now is       77.6 secs

     total energy              =     -63.66030960 Ry
     Harris-Foulkes estimate   =     -63.65974788 Ry
     estimated scf accuracy    <       0.00188091 Ry

     total magnetization       =     2.00 Bohr mag/cell
     absolute magnetization    =     2.02 Bohr mag/cell

     iteration #  4     ecut=   300.00 Ry     beta=0.70
     Davidson diagonalization with overlap
     ethr =  1.57E-05,  avg # of iterations =  1.5

     negative rho (up, down):  0.672E-08 0.207E-07

     total cpu time spent up to now is       92.1 secs

     total energy              =     -63.66062509 Ry
     Harris-Foulkes estimate   =     -63.66060696 Ry
     estimated scf accuracy    <       0.00004148 Ry

     total magnetization       =     2.00 Bohr mag/cell
     absolute magnetization    =     2.03 Bohr mag/cell

     iteration #  5     ecut=   300.00 Ry     beta=0.70
     Davidson diagonalization with overlap
     ethr =  3.46E-07,  avg # of iterations =  3.0

     total cpu time spent up to now is      107.0 secs

     total energy              =     -63.66063772 Ry
     Harris-Foulkes estimate   =     -63.66063573 Ry
     estimated scf accuracy    <       0.00000096 Ry

     total magnetization       =     2.00 Bohr mag/cell
     absolute magnetization    =     2.03 Bohr mag/cell

     iteration #  6     ecut=   300.00 Ry     beta=0.70
     Davidson diagonalization with overlap
     ethr =  8.02E-09,  avg # of iterations =  2.0

     total cpu time spent up to now is      109.2 secs

     End of self-consistent calculation

 ------ SPIN UP ------------


          k = 0.0000 0.0000 0.0000 (591889 PWs)   bands (ev):

   -35.4359 -19.0800 -14.8521 -14.8521 -13.9471  -5.5411  -5.5411  -0.1943
     1.1608   1.2079   1.2079

     occupation numbers 
     1.0000   1.0000   1.0000   1.0000   1.0000   1.0000   1.0000   0.0000
     0.0000   0.0000   0.0000

 ------ SPIN DOWN ----------


          k = 0.0000 0.0000 0.0000 (591889 PWs)   bands (ev):

   -34.1595 -17.3109 -13.0783 -13.0783 -12.6981  -3.4130  -3.4130  -0.1414
     1.2322   1.2610   1.2610

     occupation numbers 
     1.0000   1.0000   1.0000   1.0000   1.0000   0.0000   0.0000   0.0000
     0.0000   0.0000   0.0000

     the spin up/dw Fermi energies are    -3.3241   -7.9118 ev

!    total energy              =     -63.66063815 Ry
     Harris-Foulkes estimate   =     -63.66063815 Ry
     estimated scf accuracy    <       0.00000003 Ry

     The total energy is the sum of the following terms:

     one-electron contribution =    -130.35555375 Ry
     hartree contribution      =      66.77232145 Ry
     xc contribution           =     -13.61491483 Ry
     ewald contribution        =      13.53750898 Ry
     smearing contrib. (-TS)   =       0.00000000 Ry

     total magnetization       =     2.00 Bohr mag/cell
     absolute magnetization    =     2.03 Bohr mag/cell

     convergence has been achieved in   6 iterations

     Forces acting on atoms (Ry/au):

     atom    1 type  1   force =    -0.56572967    0.00000009    0.00000000
     atom    2 type  1   force =     0.56572967   -0.00000009    0.00000000
     The non-local contrib.  to forces
     atom    1 type  1   force =     4.49117209    0.00000005   -0.00000002
     atom    2 type  1   force =    -4.49117239   -0.00000014   -0.00000005
     The ionic contribution  to forces
     atom    1 type  1   force =   -16.97947520    0.00000000    0.00000000
     atom    2 type  1   force =    16.97947520    0.00000000    0.00000000
     The local contribution  to forces
     atom    1 type  1   force =    11.92256987    0.00000012    0.00000009
     atom    2 type  1   force =   -11.92256788    0.00000013    0.00000011
     The core correction contribution to forces
     atom    1 type  1   force =     0.00000000    0.00000000    0.00000000
     atom    2 type  1   force =     0.00000000    0.00000000    0.00000000
     The Hubbard contrib.    to forces
     atom    1 type  1   force =     0.00000000    0.00000000    0.00000000
     atom    2 type  1   force =     0.00000000    0.00000000    0.00000000
     The SCF correction term to forces
     atom    1 type  1   force =     0.00000434   -0.00000001    0.00000000
     atom    2 type  1   force =    -0.00000449    0.00000000    0.00000000

     Total force =     0.800063     Total SCF correction =     0.000006


     entering subroutine stress ...

          total   stress  (Ry/bohr**3)                   (kbar)     P=    8.28
   0.00017104   0.00000000   0.00000000         25.16      0.00      0.00
   0.00000000  -0.00000109   0.00000000          0.00     -0.16      0.00
   0.00000000   0.00000000  -0.00000109          0.00      0.00     -0.16

     kinetic stress (kbar)    646.14      0.00      0.00
                                0.00    741.83      0.00
                                0.00      0.00    741.83

     local   stress (kbar)  -2017.48      0.00      0.00
                                0.00  -1053.00      0.00
                                0.00      0.00  -1053.00

     nonloc. stress (kbar)    184.35      0.00      0.00
                                0.00    180.44      0.00
                                0.00      0.00    180.44

     hartree stress (kbar)    693.28      0.00      0.00
                                0.00    381.14      0.00
                                0.00      0.00    381.14

     exc-cor stress (kbar)    -92.46      0.00      0.00
                                0.00    -92.46      0.00
                                0.00      0.00    -92.46

     corecor stress (kbar)      0.00      0.00      0.00
                                0.00      0.00      0.00
                                0.00      0.00      0.00

     ewald   stress (kbar)    611.33      0.00      0.00
                                0.00   -158.12      0.00
                                0.00      0.00   -158.12

     hubbard stress (kbar)      0.00      0.00      0.00
                                0.00      0.00      0.00
                                0.00      0.00      0.00

     london  stress (kbar)      0.00      0.00      0.00
                                0.00      0.00      0.00
                                0.00      0.00      0.00

     dft-nl  stress (kbar)      0.00      0.00      0.00
                                0.00      0.00      0.00
                                0.00      0.00      0.00



     Writing output data file pwscf.save
 
     init_run     :     31.09s CPU     31.09s WALL (       1 calls)
     electrons    :     77.09s CPU     77.09s WALL (       1 calls)
     forces       :      1.30s CPU      1.30s WALL (       1 calls)
     stress       :      0.77s CPU      0.77s WALL (       1 calls)

     Called by init_run:
     wfcinit      :      0.77s CPU      0.77s WALL (       1 calls)
     potinit      :      1.11s CPU      1.11s WALL (       1 calls)

     Called by electrons:
     c_bands      :     12.06s CPU     12.06s WALL (       6 calls)
     sum_band     :      2.51s CPU      2.51s WALL (       6 calls)
     v_of_rho     :      0.81s CPU      0.81s WALL (       7 calls)
     v_h          :      0.14s CPU      0.14s WALL (       7 calls)
     v_xc         :      0.67s CPU      0.67s WALL (       7 calls)
     mix_rho      :      0.26s CPU      0.26s WALL (       6 calls)

     Called by c_bands:
     init_us_2    :      0.01s CPU      0.01s WALL (      30 calls)
     cegterg      :     11.99s CPU     11.99s WALL (      12 calls)

     Called by sum_band:

     Called by *egterg:
     h_psi        :     12.25s CPU     12.25s WALL (      54 calls)
     g_psi        :      0.05s CPU      0.05s WALL (      40 calls)
     cdiaghg      :      0.17s CPU      0.17s WALL (      52 calls)
     cegterg:over :      0.08s CPU      0.08s WALL (      40 calls)
     cegterg:upda :      0.07s CPU      0.07s WALL (      40 calls)
     cegterg:last :      0.02s CPU      0.02s WALL (      14 calls)

     Called by h_psi:
     h_psi:vloc   :     12.20s CPU     12.20s WALL (      54 calls)
     h_psi:vnl    :      0.04s CPU      0.04s WALL (      54 calls)
     add_vuspsi   :      0.02s CPU      0.02s WALL (      54 calls)

     General routines
     calbec       :      0.36s CPU      0.36s WALL (      58 calls)
     fft          :      1.15s CPU      1.15s WALL (      52 calls)
     fftw         :     13.69s CPU     13.69s WALL (     946 calls)
 
     Parallel routines
     fft_scatter  :      2.52s CPU      2.52s WALL (     998 calls)
     EXX routines
 
     PWSCF        :  2m29.83s CPU     2m29.83s WALL

 
   This run was terminated on:  19:47:43   6Jun2016            

=------------------------------------------------------------------------------=
   JOB DONE.
=------------------------------------------------------------------------------=
