unknown system                          
            1
     5.620240    0.000000    0.000000
     0.000000    5.620240    0.000000
     0.000000    0.000000   16.860720
   Pt
  13
Direct configuration=     1
   0.25000000  0.25000000  0.11785000
   0.75000000  0.25000000  0.11785000
   0.25000000  0.75000000  0.11785000
   0.75000000  0.75000000  0.11785000
   0.00000000  0.00000000  0.23414099
   0.00000000  0.50000000  0.23441588
   0.50000000  0.00000000  0.23777213
   0.50000000  0.50000000  0.23414099
   0.25000000  0.25000000  0.35179823
   0.75000000  0.25000000  0.35179823
   0.25000000  0.75000000  0.35179823
   0.75000000  0.75000000  0.35179823
   0.00000000  0.50000000  0.44922707
Direct configuration=     2
   0.25000000  0.25000000  0.11785000
   0.75000000  0.25000000  0.11785000
   0.25000000  0.75000000  0.11785000
   0.75000000  0.75000000  0.11785000
   0.00000000  0.00000000  0.23322794
   0.00000000  0.50000000  0.23271048
   0.50000000  0.00000000  0.23863429
   0.50000000  0.50000000  0.23322794
   0.25564636  0.24435364  0.35088992
   0.74435364  0.24435364  0.35088992
   0.25564636  0.75564636  0.35088992
   0.74435364  0.75564636  0.35088992
   0.00000000  0.50000000  0.45106531
Direct configuration=     3
   0.25000000  0.25000000  0.11785000
   0.75000000  0.25000000  0.11785000
   0.25000000  0.75000000  0.11785000
   0.75000000  0.75000000  0.11785000
   0.00000000  0.00000000  0.23282440
   0.00000000  0.50000000  0.23261896
   0.50000000  0.00000000  0.23786719
   0.50000000  0.50000000  0.23282440
   0.25513996  0.24486004  0.35094343
   0.74486004  0.24486004  0.35094343
   0.25513996  0.75513996  0.35094343
   0.74486004  0.75513996  0.35094343
   0.00000000  0.50000000  0.44967788
Direct configuration=     4
   0.25000000  0.25000000  0.11785000
   0.75000000  0.25000000  0.11785000
   0.25000000  0.75000000  0.11785000
   0.75000000  0.75000000  0.11785000
   0.00000000  0.00000000  0.23253788
   0.00000000  0.50000000  0.23247082
   0.50000000  0.00000000  0.23752742
   0.50000000  0.50000000  0.23253788
   0.25556488  0.24443512  0.35060367
   0.74443512  0.24443512  0.35060367
   0.25556488  0.75556488  0.35060367
   0.74443512  0.75556488  0.35060367
   0.00000000  0.50000000  0.44891380
Direct configuration=     5
   0.25000000  0.25000000  0.11785000
   0.75000000  0.25000000  0.11785000
   0.25000000  0.75000000  0.11785000
   0.75000000  0.75000000  0.11785000
   0.00000000  0.00000000  0.23193200
   0.00000000  0.50000000  0.23216850
   0.50000000  0.00000000  0.23653208
   0.50000000  0.50000000  0.23193200
   0.25619668  0.24380332  0.34958766
   0.74380332  0.24380332  0.34958766
   0.25619668  0.75619668  0.34958766
   0.74380332  0.75619668  0.34958766
   0.00000000  0.50000000  0.44711331
Direct configuration=     6
   0.25000000  0.25000000  0.11785000
   0.75000000  0.25000000  0.11785000
   0.25000000  0.75000000  0.11785000
   0.75000000  0.75000000  0.11785000
   0.00000000  0.00000000  0.23138281
   0.00000000  0.50000000  0.23178925
   0.50000000  0.00000000  0.23556542
   0.50000000  0.50000000  0.23138281
   0.25654940  0.24345060  0.34847135
   0.74345060  0.24345060  0.34847135
   0.25654940  0.75654940  0.34847135
   0.74345060  0.75654940  0.34847135
   0.00000000  0.50000000  0.44561426
Direct configuration=     7
   0.25000000  0.25000000  0.11785000
   0.75000000  0.25000000  0.11785000
   0.25000000  0.75000000  0.11785000
   0.75000000  0.75000000  0.11785000
   0.00000000  0.00000000  0.23098498
   0.00000000  0.50000000  0.23140427
   0.50000000  0.00000000  0.23497072
   0.50000000  0.50000000  0.23098498
   0.25657175  0.24342825  0.34769376
   0.74342825  0.24342825  0.34769376
   0.25657175  0.75657175  0.34769376
   0.74342825  0.75657175  0.34769376
   0.00000000  0.50000000  0.44472603
Direct configuration=     8
   0.25000000  0.25000000  0.11785000
   0.75000000  0.25000000  0.11785000
   0.25000000  0.75000000  0.11785000
   0.75000000  0.75000000  0.11785000
   0.00000000  0.00000000  0.23078170
   0.00000000  0.50000000  0.23114241
   0.50000000  0.00000000  0.23477738
   0.50000000  0.50000000  0.23078170
   0.25650517  0.24349483  0.34732510
   0.74349483  0.24349483  0.34732510
   0.25650517  0.75650517  0.34732510
   0.74349483  0.75650517  0.34732510
   0.00000000  0.50000000  0.44440014
Direct configuration=     9
   0.25000000  0.25000000  0.11785000
   0.75000000  0.25000000  0.11785000
   0.25000000  0.75000000  0.11785000
   0.75000000  0.75000000  0.11785000
   0.00000000  0.00000000  0.23069404
   0.00000000  0.50000000  0.23100851
   0.50000000  0.00000000  0.23473405
   0.50000000  0.50000000  0.23069404
   0.25641397  0.24358603  0.34719108
   0.74358603  0.24358603  0.34719108
   0.25641397  0.75641397  0.34719108
   0.74358603  0.75641397  0.34719108
   0.00000000  0.50000000  0.44429967
Direct configuration=    10
   0.25000000  0.25000000  0.11785000
   0.75000000  0.25000000  0.11785000
   0.25000000  0.75000000  0.11785000
   0.75000000  0.75000000  0.11785000
   0.00000000  0.00000000  0.23068055
   0.00000000  0.50000000  0.23097015
   0.50000000  0.00000000  0.23475544
   0.50000000  0.50000000  0.23068055
   0.25638081  0.24361919  0.34716983
   0.74361919  0.24361919  0.34716983
   0.25638081  0.75638081  0.34716983
   0.74361919  0.75638081  0.34716983
   0.00000000  0.50000000  0.44431376
