
     Program PWSCF v.5.0        starts on 27May2016 at 19: 7:43 

     This program is part of the open-source Quantum ESPRESSO suite
     for quantum simulation of materials; please cite
         "P. Giannozzi et al., J. Phys.:Condens. Matter 21 395502 (2009);
          URL http://www.quantum-espresso.org", 
     in publications or presentations arising from this work. More details at
     http://www.quantum-espresso.org/quote.php

     Parallel version (MPI), running on   512 processors
     R & G space division:  proc/pool =  512

     Current dimensions of program PWSCF are:
     Max number of different atomic species (ntypx) = 10
     Max number of k-points (npk) =  40000
     Max angular momentum in pseudopotentials (lmaxx) =  3
     Reading input from dft.in

     IMPORTANT: XC functional enforced from input :
     Exchange-correlation      = LDA ( 1 1 0 0 0)
     EXX-fraction              =        0.00
     Any further DFT definition will be discarded
     Please, verify this is what you really want

               file O.BFD.upf: wavefunction(s)  0s 0p renormalized

     Subspace diagonalization in iterative solution of the eigenvalue problem:
     a serial algorithm will be used

 
     Parallelization info
     --------------------
     sticks:   dense  smooth     PW     G-vecs:    dense   smooth      PW
     Min          44      44     11                 5032     5032     625
     Max          45      45     12                 5043     5043     635
     Sum       22733   22733   5689              2578383  2578383  322453
 


     bravais-lattice index     =            0
     lattice parameter (alat)  =       1.0000  a.u.
     unit-cell volume          =    6748.3346 (a.u.)^3
     number of atoms/cell      =            2
     number of atomic types    =            1
     number of electrons       =        12.00 (up:   7.00, down:   5.00)
     number of Kohn-Sham states=           11
     kinetic-energy cutoff     =     200.0000  Ry
     charge density cutoff     =     800.0000  Ry
     convergence threshold     =      1.0E-07
     mixing beta               =       0.7000
     number of iterations used =            8  plain     mixing
     Exchange-correlation      = LDA ( 1 1 0 0 0)
     EXX-fraction              =        0.00

     celldm(1)=   1.000000  celldm(2)=   0.000000  celldm(3)=   0.000000
     celldm(4)=   0.000000  celldm(5)=   0.000000  celldm(6)=   0.000000

     crystal axes: (cart. coord. in units of alat)
               a(1) = (  18.897261   0.000000   0.000000 )  
               a(2) = (   0.000000  18.897261   0.000000 )  
               a(3) = (   0.000000   0.000000  18.897261 )  

     reciprocal axes: (cart. coord. in units 2 pi/alat)
               b(1) = (  0.052918  0.000000  0.000000 )  
               b(2) = (  0.000000  0.052918  0.000000 )  
               b(3) = (  0.000000  0.000000  0.052918 )  


     PseudoPot. # 1 for O  read from file:
     ./O.BFD.upf
     MD5 check sum: e50a3faf6d087c8e93bb07d695ababf7
     Pseudo is Norm-conserving, Zval =  6.0
     Generated by new atomic code, or converted to UPF format
     Using radial grid of 2000 points,  1 beta functions with: 
                l(1) =   0

     atomic species   valence    mass     pseudopotential
        O              6.00    15.99900     O ( 1.00)

     Starting magnetic structure 
     atomic species   magnetization
        O            0.000

     No symmetry found


                                    s                        frac. trans.

      isym =  1     identity                                     

 cryst.   s( 1) = (     1          0          0      )
                  (     0          1          0      )
                  (     0          0          1      )

 cart.    s( 1) = (  1.0000000  0.0000000  0.0000000 )
                  (  0.0000000  1.0000000  0.0000000 )
                  (  0.0000000  0.0000000  1.0000000 )


     point group C_1 (1)    
     there are  1 classes
     the character table:

       E    
A      1.00

     the symmetry operations in each class:
     E        1

   Cartesian axes

     site n.     atom                  positions (alat units)
         1           O   tau(   1) = (   8.1937202   9.4486307   9.4486307  )
         2           O   tau(   2) = (  10.7035411   9.4486307   9.4486307  )

   Crystallographic axes

     site n.     atom                  positions (cryst. coord.)
         1           O   tau(   1) = (  0.4335930  0.5000000  0.5000000  )
         2           O   tau(   2) = (  0.5664070  0.5000000  0.5000000  )

     number of k points=     2  Fermi-Dirac smearing, width (Ry)=  0.0001
                       cart. coord. in units 2pi/alat
        k(    1) = (   0.0000000   0.0000000   0.0000000), wk =   1.0000000
        k(    2) = (   0.0000000   0.0000000   0.0000000), wk =   1.0000000

                       cryst. coord.
        k(    1) = (   0.0000000   0.0000000   0.0000000), wk =   1.0000000
        k(    2) = (   0.0000000   0.0000000   0.0000000), wk =   1.0000000

     Dense  grid:  2578383 G-vectors     FFT dimensions: ( 176, 176, 176)

     Largest allocated arrays     est. size (Mb)     dimensions
        Kohn-Sham Wavefunctions         0.11 Mb     (    635,   11)
        NL pseudopotentials             0.02 Mb     (    635,    2)
        Each V/rho on FFT grid          0.95 Mb     (  30976,   2)
        Each G-vector array             0.04 Mb     (   5034)
        G-vector shells                 0.02 Mb     (   1978)
     Largest temporary arrays     est. size (Mb)     dimensions
        Auxiliary wavefunctions         0.43 Mb     (    635,   44)
        Each subspace H/S matrix        0.03 Mb     (  44,  44)
        Each <psi_i|beta_j> matrix      0.00 Mb     (      2,   11)
        Arrays for rho mixing           3.78 Mb     (  30976,   8)

     Initial potential from superposition of free atoms

     starting charge    0.95494, renormalised to   12.00000

     negative rho (up, down):  0.418E-03 0.418E-03
     Starting wfc are    8 randomized atomic wfcs

     total cpu time spent up to now is       18.5 secs

     per-process dynamical memory:    18.4 Mb

     Self-consistent Calculation

     iteration #  1     ecut=   200.00 Ry     beta=0.70
     Davidson diagonalization with overlap
     ethr =  1.00E-02,  avg # of iterations =  7.0

     Threshold (ethr) on eigenvalues was too large:
     Diagonalizing with lowered threshold

     Davidson diagonalization with overlap
     ethr =  8.10E-04,  avg # of iterations =  3.0

     negative rho (up, down):  0.110E-03 0.119E-03

     total cpu time spent up to now is       28.7 secs

     total energy              =     -63.65211424 Ry
     Harris-Foulkes estimate   =     -63.60677205 Ry
     estimated scf accuracy    <       0.09606273 Ry

     total magnetization       =     2.00 Bohr mag/cell
     absolute magnetization    =     2.00 Bohr mag/cell

     iteration #  2     ecut=   200.00 Ry     beta=0.70
     Davidson diagonalization with overlap
     ethr =  8.01E-04,  avg # of iterations =  1.5

     negative rho (up, down):  0.140E-04 0.159E-04

     total cpu time spent up to now is       36.7 secs

     total energy              =     -63.66859383 Ry
     Harris-Foulkes estimate   =     -63.66079971 Ry
     estimated scf accuracy    <       0.00964869 Ry

     total magnetization       =     2.00 Bohr mag/cell
     absolute magnetization    =     2.02 Bohr mag/cell

     iteration #  3     ecut=   200.00 Ry     beta=0.70
     Davidson diagonalization with overlap
     ethr =  8.04E-05,  avg # of iterations =  3.0

     negative rho (up, down):  0.905E-06 0.114E-05

     total cpu time spent up to now is       44.8 secs

     total energy              =     -63.67015601 Ry
     Harris-Foulkes estimate   =     -63.66969588 Ry
     estimated scf accuracy    <       0.00072740 Ry

     total magnetization       =     2.00 Bohr mag/cell
     absolute magnetization    =     2.03 Bohr mag/cell

     iteration #  4     ecut=   200.00 Ry     beta=0.70
     Davidson diagonalization with overlap
     ethr =  6.06E-06,  avg # of iterations =  4.0

     negative rho (up, down):  0.904E-06 0.116E-05

     total cpu time spent up to now is       53.3 secs

     total energy              =     -63.67035334 Ry
     Harris-Foulkes estimate   =     -63.67035372 Ry
     estimated scf accuracy    <       0.00006672 Ry

     total magnetization       =     2.00 Bohr mag/cell
     absolute magnetization    =     2.04 Bohr mag/cell

     iteration #  5     ecut=   200.00 Ry     beta=0.70
     Davidson diagonalization with overlap
     ethr =  5.56E-07,  avg # of iterations =  1.5

     negative rho (up, down):  0.280E-07 0.531E-07

     total cpu time spent up to now is       61.3 secs

     total energy              =     -63.67037104 Ry
     Harris-Foulkes estimate   =     -63.67036614 Ry
     estimated scf accuracy    <       0.00000359 Ry

     total magnetization       =     2.00 Bohr mag/cell
     absolute magnetization    =     2.04 Bohr mag/cell

     iteration #  6     ecut=   200.00 Ry     beta=0.70
     Davidson diagonalization with overlap
     ethr =  3.00E-08,  avg # of iterations =  2.0

     total cpu time spent up to now is       62.8 secs

     End of self-consistent calculation

 ------ SPIN UP ------------


          k = 0.0000 0.0000 0.0000 (322453 PWs)   bands (ev):

   -30.3409 -20.9688 -13.3096 -12.6055 -12.6055  -7.5567  -7.5567  -0.4559
    -0.2047   1.2626   1.2626

     occupation numbers 
     1.0000   1.0000   1.0000   1.0000   1.0000   1.0000   1.0000   0.0000
     0.0000   0.0000   0.0000

 ------ SPIN DOWN ----------


          k = 0.0000 0.0000 0.0000 (322453 PWs)   bands (ev):

   -28.9338 -19.1649 -12.1713 -10.8160 -10.8160  -5.4138  -5.4138  -0.1636
     0.4651   1.3064   1.3064

     occupation numbers 
     1.0000   1.0000   1.0000   1.0000   1.0000   0.0000   0.0000   0.0000
     0.0000   0.0000   0.0000

     the spin up/dw Fermi energies are    -6.6040   -6.6040 ev

!    total energy              =     -63.67037205 Ry
     Harris-Foulkes estimate   =     -63.67037203 Ry
     estimated scf accuracy    <       0.00000007 Ry

     The total energy is the sum of the following terms:

     one-electron contribution =    -118.95594859 Ry
     hartree contribution      =      61.24545823 Ry
     xc contribution           =     -13.17100866 Ry
     ewald contribution        =       7.21112698 Ry
     smearing contrib. (-TS)   =       0.00000000 Ry

     total magnetization       =     2.00 Bohr mag/cell
     absolute magnetization    =     2.04 Bohr mag/cell

     convergence has been achieved in   6 iterations

     Forces acting on atoms (Ry/au):

     atom    1 type  1   force =     0.23327585   -0.00000001   -0.00000002
     atom    2 type  1   force =    -0.23327585    0.00000001    0.00000002
     The non-local contrib.  to forces
     atom    1 type  1   force =     4.23520726    0.00000002   -0.00000002
     atom    2 type  1   force =    -4.23522426    0.00000003    0.00000003
     The ionic contribution  to forces
     atom    1 type  1   force =   -11.31194862    0.00000000    0.00000000
     atom    2 type  1   force =    11.31194862    0.00000000    0.00000000
     The local contribution  to forces
     atom    1 type  1   force =     7.30995548   -0.00000002    0.00000000
     atom    2 type  1   force =    -7.31001270   -0.00000002    0.00000000
     The core correction contribution to forces
     atom    1 type  1   force =     0.00000000    0.00000000    0.00000000
     atom    2 type  1   force =     0.00000000    0.00000000    0.00000000
     The Hubbard contrib.    to forces
     atom    1 type  1   force =     0.00000000    0.00000000    0.00000000
     atom    2 type  1   force =     0.00000000    0.00000000    0.00000000
     The SCF correction term to forces
     atom    1 type  1   force =     0.00002779    0.00000000    0.00000000
     atom    2 type  1   force =    -0.00002146    0.00000000    0.00000000

     Total force =     0.329902     Total SCF correction =     0.000035


     entering subroutine stress ...

          total   stress  (Ry/bohr**3)                   (kbar)     P=   -5.67
  -0.00009597   0.00000000   0.00000000        -14.12      0.00      0.00
   0.00000000  -0.00000986   0.00000000          0.00     -1.45      0.00
   0.00000000   0.00000000  -0.00000986          0.00      0.00     -1.45

     kinetic stress (kbar)    598.10      0.00      0.00
                                0.00    709.92      0.00
                                0.00      0.00    709.92

     local   stress (kbar)  -1844.94      0.00      0.00
                                0.00   -990.88      0.00
                                0.00      0.00   -990.88

     nonloc. stress (kbar)    189.88      0.00      0.00
                                0.00    188.81      0.00
                                0.00      0.00    188.81

     hartree stress (kbar)    657.81      0.00      0.00
                                0.00    338.63      0.00
                                0.00      0.00    338.63

     exc-cor stress (kbar)    -89.35      0.00      0.00
                                0.00    -89.35      0.00
                                0.00      0.00    -89.35

     corecor stress (kbar)      0.00      0.00      0.00
                                0.00      0.00      0.00
                                0.00      0.00      0.00

     ewald   stress (kbar)    474.37      0.00      0.00
                                0.00   -158.59      0.00
                                0.00      0.00   -158.59

     hubbard stress (kbar)      0.00      0.00      0.00
                                0.00      0.00      0.00
                                0.00      0.00      0.00

     london  stress (kbar)      0.00      0.00      0.00
                                0.00      0.00      0.00
                                0.00      0.00      0.00

     dft-nl  stress (kbar)      0.00      0.00      0.00
                                0.00      0.00      0.00
                                0.00      0.00      0.00



     Writing output data file pwscf.save
 
     init_run     :     17.35s CPU     17.35s WALL (       1 calls)
     electrons    :     44.36s CPU     44.36s WALL (       1 calls)
     forces       :      0.86s CPU      0.86s WALL (       1 calls)
     stress       :      0.53s CPU      0.53s WALL (       1 calls)

     Called by init_run:
     wfcinit      :      0.50s CPU      0.50s WALL (       1 calls)
     potinit      :      0.67s CPU      0.67s WALL (       1 calls)

     Called by electrons:
     c_bands      :      8.11s CPU      8.11s WALL (       7 calls)
     sum_band     :      1.84s CPU      1.84s WALL (       7 calls)
     v_of_rho     :      0.56s CPU      0.56s WALL (       7 calls)
     v_h          :      0.09s CPU      0.09s WALL (       7 calls)
     v_xc         :      0.47s CPU      0.47s WALL (       7 calls)
     mix_rho      :      0.15s CPU      0.15s WALL (       7 calls)

     Called by c_bands:
     init_us_2    :      0.01s CPU      0.01s WALL (      34 calls)
     cegterg      :      8.03s CPU      8.03s WALL (      14 calls)

     Called by sum_band:

     Called by *egterg:
     h_psi        :      8.12s CPU      8.12s WALL (      60 calls)
     g_psi        :      0.03s CPU      0.03s WALL (      44 calls)
     cdiaghg      :      0.21s CPU      0.21s WALL (      56 calls)
     cegterg:over :      0.05s CPU      0.05s WALL (      44 calls)
     cegterg:upda :      0.04s CPU      0.04s WALL (      44 calls)
     cegterg:last :      0.01s CPU      0.01s WALL (      14 calls)

     Called by h_psi:
     h_psi:vloc   :      8.08s CPU      8.08s WALL (      60 calls)
     h_psi:vnl    :      0.03s CPU      0.03s WALL (      60 calls)
     add_vuspsi   :      0.01s CPU      0.01s WALL (      60 calls)

     General routines
     calbec       :      0.31s CPU      0.31s WALL (      64 calls)
     fft          :      0.83s CPU      0.83s WALL (      56 calls)
     fftw         :      9.20s CPU      9.20s WALL (    1018 calls)
 
     Parallel routines
     fft_scatter  :      1.83s CPU      1.83s WALL (    1074 calls)
     EXX routines
 
     PWSCF        :  1m27.79s CPU     1m27.79s WALL

 
   This run was terminated on:  19: 9:10  27May2016            

=------------------------------------------------------------------------------=
   JOB DONE.
=------------------------------------------------------------------------------=
