HPM profiling is enabled with event = x1 cycles, threshold = 1600000.
          ******************************************************
          *         GAMESS VERSION =  1 MAY 2012 (R2)          *
          *             FROM IOWA STATE UNIVERSITY             *
          * M.W.SCHMIDT, K.K.BALDRIDGE, J.A.BOATZ, S.T.ELBERT, *
          *   M.S.GORDON, J.H.JENSEN, S.KOSEKI, N.MATSUNAGA,   *
          *          K.A.NGUYEN, S.J.SU, T.L.WINDUS,           *
          *       TOGETHER WITH M.DUPUIS, J.A.MONTGOMERY       *
          *         J.COMPUT.CHEM.  14, 1347-1363(1993)        *
          ****************** IBM (AIX) VERSION *****************

  SINCE 1993, STUDENTS AND POSTDOCS WORKING AT IOWA STATE UNIVERSITY
  AND ALSO IN THEIR VARIOUS JOBS AFTER LEAVING ISU HAVE MADE IMPORTANT
  CONTRIBUTIONS TO THE CODE:
     IVANA ADAMOVIC, CHRISTINE AIKENS, YURI ALEXEEV, POOJA ARORA,
     ANDREY ASADCHEV, ROB BELL, PRADIPTA BANDYOPADHYAY, JONATHAN BENTZ,
     BRETT BODE, GALINA CHABAN, WEI CHEN, CHEOL HO CHOI, PAUL DAY,
     ALBERT DEFUSCO, TIM DUDLEY, DMITRI FEDOROV, GRAHAM FLETCHER,
     MARK FREITAG, KURT GLAESEMANN, DAN KEMP, GRANT MERRILL,
     NORIYUKI MINEZAWA, JONATHAN MULLIN, TAKESHI NAGATA,
     SEAN NEDD, HEATHER NETZLOFF, BOSILJKA NJEGIC, RYAN OLSON, MIKE PAK,
     JIM SHOEMAKER, LYUDMILA SLIPCHENKO, SAROM SOK, JIE SONG,
     TETSUYA TAKETSUGU, SIMON WEBB, SOOHAENG YOO, FEDERICO ZAHARIEV

  ADDITIONAL CODE HAS BEEN PROVIDED BY COLLABORATORS IN OTHER GROUPS:
     IOWA STATE UNIVERSITY:
          JOE IVANIC, LAIMUTIS BYTAUTAS, KLAUS RUEDENBERG
     UNIVERSITY OF TOKYO: KIMIHIKO HIRAO, TAKAHITO NAKAJIMA,
          TAKAO TSUNEDA, MUNEAKI KAMIYA, SUSUMU YANAGISAWA,
          KIYOSHI YAGI, MAHITO CHIBA, SEIKEN TOKURA, NAOAKI KAWAKAMI
     UNIVERSITY OF AARHUS: FRANK JENSEN
     UNIVERSITY OF IOWA: VISVALDAS KAIRYS, HUI LI
     NATIONAL INST. OF STANDARDS AND TECHNOLOGY: WALT STEVENS, DAVID GARMER
     UNIVERSITY OF PISA: BENEDETTA MENNUCCI, JACOPO TOMASI
     UNIVERSITY OF MEMPHIS: HENRY KURTZ, PRAKASHAN KORAMBATH
     UNIVERSITY OF ALBERTA: TOBY ZENG, MARIUSZ KLOBUKOWSKI
     UNIVERSITY OF NEW ENGLAND: MARK SPACKMAN
     MIE UNIVERSITY: HIROAKI UMEDA
     MICHIGAN STATE UNIVERSITY:
          KAROL KOWALSKI, MARTA WLOCH, JEFFREY GOUR, JESSE LUTZ, PIOTR PIECUCH
     UNIVERSITY OF SILESIA: MONIKA MUSIAL, STANISLAW KUCHARSKI
     FACULTES UNIVERSITAIRES NOTRE-DAME DE LA PAIX:
          OLIVIER QUINET, BENOIT CHAMPAGNE
     UNIVERSITY OF CALIFORNIA - SANTA BARBARA: BERNARD KIRTMAN
     INSTITUTE FOR MOLECULAR SCIENCE:
          KAZUYA ISHIMURA, MICHIO KATOUDA, AND SHIGERU NAGASE
     UNIVERSITY OF NOTRE DAME: DAN CHIPMAN
     KYUSHU UNIVERSITY:
          HARUYUKI NAKANO,
          FENG LONG GU, JACEK KORCHOWIEC, MARCIN MAKOWSKI, AND YURIKO AOKI,
          HIROTOSHI MORI AND EISAKU MIYOSHI
     PENNSYLVANIA STATE UNIVERSITY:
          TZVETELIN IORDANOV, CHET SWALINA, JONATHAN SKONE,
          SHARON HAMMES-SCHIFFER
     WASEDA UNIVERSITY:
          MASATO KOBAYASHI, TOMOKO AKAMA, TSUGUKI TOUMA,
          TAKESHI YOSHIKAWA, YASUHIRO IKABATA, HIROMI NAKAI
     UNIVERSITY OF NEBRASKA:
          PEIFENG SU, DEJUN SI, NANDUN THELLAMUREGE, YALI WANG, HUI LI
     UNIVERSITY OF ZURICH:
          ROBERTO PEVERATI, KIM BALDRIDGE
     N. COPERNICUS UNIVERSITY AND JACKSON STATE UNIVERSITY:
          MARIA BARYSZ


 PARALLEL VERSION RUNNING ON   128 PROCESSORS IN   128 NODES.

 EXECUTION OF GAMESS BEGUN Fri Nov 18 23:05:24 2016

            ECHO OF THE FIRST FEW INPUT CARDS -
 INPUT CARD>!   File created by the GAMESS Input Deck Generator Plugin for Avogadro         
 INPUT CARD> $CONTRL SCFTYP=ROHF RUNTYP=ENERGY  MULT=5 DFTTYP=B3LYP                         
 INPUT CARD>   ISPHER=1 EXETYP=RUN COORD=UNIQUE MAXIT=200  ICHARG=2 ECP=READ $END           
 INPUT CARD> $SYSTEM MEMORY=150000000 $END                                                  
 INPUT CARD> $GUESS  GUESS=HUCKEL $END                                                      
 INPUT CARD> $SCF DIRSCF=.TRUE. DIIS=.TRUE. ETHRSH=1.0 SWDIIS=0.009  $END                   
 INPUT CARD> $ECP                                                                           
 INPUT CARD>Fe-QMC_SC GEN 10 2                                                              
 INPUT CARD>3                                                                               
 INPUT CARD>16.00000000 1 3.72075632                                                        
 INPUT CARD>59.53210107 3 3.92321272                                                        
 INPUT CARD>-68.75847841 2 3.89595440                                                       
 INPUT CARD>1                                                                               
 INPUT CARD>112.92561163 2 10.42343546                                                      
 INPUT CARD>1                                                                               
 INPUT CARD>52.55882759 2 8.41664076                                                        
 INPUT CARD>C-QMC GEN 2 1                                                                   
 INPUT CARD>3                                                                               
 INPUT CARD>4.00000000 1 8.35973821                                                         
 INPUT CARD>33.43895285 3 4.48361888                                                        
 INPUT CARD>-19.17537323 2 3.93831258                                                       
 INPUT CARD>1                                                                               
 INPUT CARD>22.55164191 2 5.02991637                                                        
 INPUT CARD>O-QMC GEN 2 1                                                                   
 INPUT CARD>3                                                                               
 INPUT CARD>6.00000000 1 9.29793903                                                         
 INPUT CARD>55.78763416 3 8.86492204                                                        
 INPUT CARD>-38.81978498 2 8.62925665                                                       
 INPUT CARD>1                                                                               
 INPUT CARD>38.41914135 2 8.71924452                                                        
 INPUT CARD>C-QMC                                                                           
 INPUT CARD>O-QMC                                                                           
 INPUT CARD>C-QMC                                                                           
 INPUT CARD>O-QMC                                                                           
 INPUT CARD>C-QMC                                                                           
 INPUT CARD>O-QMC                                                                           
 INPUT CARD>C-QMC                                                                           
 INPUT CARD>O-QMC                                                                           
 INPUT CARD>C-QMC                                                                           
 INPUT CARD>O-QMC                                                                           
 INPUT CARD> $END                                                                           
 INPUT CARD> $DATA                                                                          
 INPUT CARD>Title                                                                           
 INPUT CARD>C1                                                                              
 INPUT CARD>Fe    26.0     0.00000    0.00000    0.00000                                    
 INPUT CARD>S   19                                                                          
 INPUT CARD>  1      4.316265E+06           8.048803E-06                                    
 INPUT CARD>  2      6.463424E+05           6.258306E-05                                    
 INPUT CARD>  3      1.470897E+05           3.290239E-04                                    
 INPUT CARD>  4      4.166152E+04           1.387355E-03                                    
  150000000 WORDS OF MEMORY AVAILABLE


     RUN TITLE
     ---------
 Title                                                                           

 THE POINT GROUP OF THE MOLECULE IS C1      
 THE ORDER OF THE PRINCIPAL AXIS IS     0
 *** WARNING! ATOM   1 SHELL    2 TYPE S HAS NORMALIZATION    .99999591
 *** WARNING! ATOM   1 SHELL    3 TYPE S HAS NORMALIZATION   1.00074500
 *** WARNING! ATOM   1 SHELL    4 TYPE S HAS NORMALIZATION   1.35022824
 *** WARNING! ATOM   1 SHELL    5 TYPE S HAS NORMALIZATION   1.00908040
 *** WARNING! ATOM   1 SHELL    8 TYPE P HAS NORMALIZATION   1.00011271
 *** WARNING! ATOM   1 SHELL    9 TYPE P HAS NORMALIZATION   1.40196838
 *** WARNING! ATOM   1 SHELL   10 TYPE P HAS NORMALIZATION   1.04359852
 *** WARNING! ATOM   1 SHELL   12 TYPE D HAS NORMALIZATION   1.01583188
 *** WARNING! ATOM   1 SHELL   13 TYPE D HAS NORMALIZATION   1.28826577
 *** WARNING! ATOM   2 SHELL   16 TYPE S HAS NORMALIZATION    .99939879
 *** WARNING! ATOM   2 SHELL   17 TYPE S HAS NORMALIZATION   2.00869625
 *** WARNING! ATOM   2 SHELL   19 TYPE P HAS NORMALIZATION   1.49516523
 *** WARNING! ATOM   3 SHELL   22 TYPE S HAS NORMALIZATION    .99950133
 *** WARNING! ATOM   3 SHELL   23 TYPE S HAS NORMALIZATION   1.96527132
 *** WARNING! ATOM   3 SHELL   25 TYPE P HAS NORMALIZATION   1.45704510
 *** WARNING! ATOM   4 SHELL   28 TYPE S HAS NORMALIZATION    .99939879
 *** WARNING! ATOM   4 SHELL   29 TYPE S HAS NORMALIZATION   2.00869625
 *** WARNING! ATOM   4 SHELL   31 TYPE P HAS NORMALIZATION   1.49516523
 *** WARNING! ATOM   5 SHELL   34 TYPE S HAS NORMALIZATION    .99950133
 *** WARNING! ATOM   5 SHELL   35 TYPE S HAS NORMALIZATION   1.96527132
 *** WARNING! ATOM   5 SHELL   37 TYPE P HAS NORMALIZATION   1.45704510
 *** WARNING! ATOM   6 SHELL   40 TYPE S HAS NORMALIZATION    .99939879
 *** WARNING! ATOM   6 SHELL   41 TYPE S HAS NORMALIZATION   2.00869625
 *** WARNING! ATOM   6 SHELL   43 TYPE P HAS NORMALIZATION   1.49516523
 *** WARNING! ATOM   7 SHELL   46 TYPE S HAS NORMALIZATION    .99950133
 *** WARNING! ATOM   7 SHELL   47 TYPE S HAS NORMALIZATION   1.96527132
 *** WARNING! ATOM   7 SHELL   49 TYPE P HAS NORMALIZATION   1.45704510
 *** WARNING! ATOM   8 SHELL   52 TYPE S HAS NORMALIZATION    .99939879
 *** WARNING! ATOM   8 SHELL   53 TYPE S HAS NORMALIZATION   2.00869625
 *** WARNING! ATOM   8 SHELL   55 TYPE P HAS NORMALIZATION   1.49516523
 *** WARNING! ATOM   9 SHELL   58 TYPE S HAS NORMALIZATION    .99950133
 *** WARNING! ATOM   9 SHELL   59 TYPE S HAS NORMALIZATION   1.96527132
 *** WARNING! ATOM   9 SHELL   61 TYPE P HAS NORMALIZATION   1.45704510
 *** WARNING! ATOM  10 SHELL   64 TYPE S HAS NORMALIZATION    .99939879
 *** WARNING! ATOM  10 SHELL   65 TYPE S HAS NORMALIZATION   2.00869625
 *** WARNING! ATOM  10 SHELL   67 TYPE P HAS NORMALIZATION   1.49516523
 *** WARNING! ATOM  11 SHELL   70 TYPE S HAS NORMALIZATION    .99950133
 *** WARNING! ATOM  11 SHELL   71 TYPE S HAS NORMALIZATION   1.96527132
 *** WARNING! ATOM  11 SHELL   73 TYPE P HAS NORMALIZATION   1.45704510
 *** WARNING! ATOM  12 SHELL   76 TYPE S HAS NORMALIZATION    .99939879
 *** WARNING! ATOM  12 SHELL   77 TYPE S HAS NORMALIZATION   2.00869625
 *** WARNING! ATOM  12 SHELL   79 TYPE P HAS NORMALIZATION   1.49516523
 *** WARNING! ATOM  13 SHELL   82 TYPE S HAS NORMALIZATION    .99950133
 *** WARNING! ATOM  13 SHELL   83 TYPE S HAS NORMALIZATION   1.96527132
 *** WARNING! ATOM  13 SHELL   85 TYPE P HAS NORMALIZATION   1.45704510

 ATOM      ATOMIC                      COORDINATES (BOHR)
           CHARGE         X                   Y                   Z
 FE         26.0      .0000000000         .0000000000         .0000000000
 C           6.0      .0000000000        -.0136438216        4.4230737496
 O           8.0     -.0000566918        -.0785370120        6.5288521095
 C           6.0     4.3520200525        -.0000188973        -.0000188973
 O           8.0     6.4595558575        -.0000377945        -.0000377945
 C           6.0    -4.3520200525         .0000188973         .0000188973
 O           8.0    -6.4595369603         .0000377945         .0000377945
 C           6.0      .0000000000         .0136438216       -4.4230737496
 O           8.0      .0000566918         .0785370120       -6.5288521095
 C           6.0      .0000000000       -4.4162707360         .0124343970
 O           8.0      .0000377945       -6.5221057877         .0779134025
 C           6.0      .0000000000        4.4162707360        -.0124343970
 O           8.0     -.0000566918        6.5221057877        -.0779134025

          INTERNUCLEAR DISTANCES (ANGS.)
          ------------------------------

                1 FE         2 C          3 O          4 C          5 O     

   1 FE       .0000000    2.3406011 *  3.4551700    2.3029900 *  3.4182500  
   2 C       2.3406011 *   .0000000    1.1148590 *  3.2836296    4.1428179  
   3 O       3.4551700    1.1148590 *   .0000000    4.1523691    4.8603471  
   4 C       2.3029900 *  3.2836296    4.1523691     .0000000    1.1152600 *
   5 O       3.4182500    4.1428179    4.8603471    1.1152600 *   .0000000  
   6 C       2.3029900 *  3.2836154    4.1523193    4.6059800    5.7212400  
   7 O       3.4182400    4.1427871    4.8602698    5.7212300    6.8364900  
   8 C       2.3406011 *  4.6812023    5.7957153    3.2836154    4.1427954  
   9 O       3.4551700    5.7957153    6.9103399    4.1523193    4.8602768  
  10 C       2.3369993 *  3.2977918    4.1424688    3.2810489    4.1407615  
  11 O       3.4515963    4.1411457    4.8249298    4.1493517    4.8577440  
  12 C       2.3369993 *  3.3173073    4.1999384    3.2810631    4.1407840  
  13 O       3.4515963    4.1993777    4.9420123    4.1493959    4.8578073  

                6 C          7 O          8 C          9 O         10 C     

   1 FE      2.3029900 *  3.4182400    2.3406011 *  3.4551700    2.3369993 *
   2 C       3.2836154    4.1427871    4.6812023    5.7957153    3.2977918  
   3 O       4.1523193    4.8602698    5.7957153    6.9103399    4.1424688  
   4 C       4.6059800    5.7212300    3.2836154    4.1523193    3.2810489  
   5 O       5.7212400    6.8364900    4.1427954    4.8602768    4.1407615  
   6 C        .0000000    1.1152500 *  3.2836296    4.1523691    3.2810631  
   7 O       1.1152500 *   .0000000    4.1428096    4.8603401    4.1407757  
   8 C       3.2836296    4.1428096     .0000000    1.1148590 *  3.3173073  
   9 O       4.1523691    4.8603401    1.1148590 *   .0000000    4.1999384  
  10 C       3.2810631    4.1407757    3.3173073    4.1999384     .0000000  
  11 O       4.1493903    4.8577932    4.1993777    4.9420123    1.1148986 *
  12 C       3.2810489    4.1407532    3.2977918    4.1424688    4.6739985  
  13 O       4.1493461    4.8577299    4.1411457    4.8249298    5.7885374  

               11 O         12 C         13 O     

   1 FE      3.4515963    2.3369993 *  3.4515963  
   2 C       4.1411457    3.3173073    4.1993777  
   3 O       4.8249298    4.1999384    4.9420123  
   4 C       4.1493517    3.2810631    4.1493959  
   5 O       4.8577440    4.1407840    4.8578073  
   6 C       4.1493903    3.2810489    4.1493461  
   7 O       4.8577932    4.1407532    4.8577299  
   8 C       4.1993777    3.2977918    4.1411457  
   9 O       4.9420123    4.1424688    4.8249298  
  10 C       1.1148986 *  4.6739985    5.7885374  
  11 O        .0000000    5.7885374    6.9031925  
  12 C       5.7885374     .0000000    1.1148986 *
  13 O       6.9031925    1.1148986 *   .0000000  

  * ... LESS THAN  3.000


     ATOMIC BASIS SET
     ----------------
 THE CONTRACTED PRIMITIVE FUNCTIONS HAVE BEEN UNNORMALIZED
 THE CONTRACTED BASIS FUNCTIONS ARE NOW NORMALIZED TO UNITY

  SHELL TYPE  PRIMITIVE        EXPONENT          CONTRACTION COEFFICIENT(S)

 FE        

      1   S       1       4316265.0000000     .000008048802
      1   S       2        646342.4000000     .000062583055
      1   S       3        147089.7000000     .000329023872
      1   S       4         41661.5200000     .001387354883
      1   S       5         13590.7700000     .005023255576
      1   S       6          4905.7500000     .016101398639
      1   S       7          1912.7460000     .045900336122
      1   S       8           792.6043000     .113615390400
      1   S       9           344.8065000     .228386880702
      1   S      10           155.8999000     .322115872782
      1   S      11            72.2309100     .238366079859
      1   S      12            32.7250600     .074046663743
      1   S      13            15.6676200     .092141962214
      1   S      14             7.5034830     .093397892108
      1   S      15             3.3122230     .015739648670
      1   S      16             1.5584710    -.000418668165
      1   S      17              .6839140     .000053763175
      1   S      18              .1467570    -.000038166537
      1   S      19              .0705830     .000043196026

      2   S      20       4316265.0000000    -.000004155937
      2   S      21        646342.4000000    -.000032313878
      2   S      22        147089.7000000    -.000169951805
      2   S      23         41661.5200000    -.000717133966
      2   S      24         13590.7700000    -.002603614347
      2   S      25          4905.7500000    -.008399074636
      2   S      26          1912.7460000    -.024340990410
      2   S      27           792.6043000    -.062519224206
      2   S      28           344.8065000    -.136592341140
      2   S      29           155.8999000    -.231269753772
      2   S      30            72.2309100    -.238372424712
      2   S      31            32.7250600     .031238242190
      2   S      32            15.6676200     .508679718763
      2   S      33             7.5034830     .498767459319
      2   S      34             3.3122230     .090335150398
      2   S      35             1.5584710    -.006005312430
      2   S      36              .6839140     .000231244454
      2   S      37              .1467570    -.000564365691
      2   S      38              .0705830     .000499223957

      3   S      39       4316265.0000000     .000000953928
      3   S      40        646342.4000000     .000007420129
      3   S      41        147089.7000000     .000039012973
      3   S      42         41661.5200000     .000164837913
      3   S      43         13590.7700000     .000599043957
      3   S      44          4905.7500000     .001943837085
      3   S      45          1912.7460000     .005691474006
      3   S      46           792.6043000     .015024474939
      3   S      47           344.8065000     .034550270878
      3   S      48           155.8999000     .065006594024
      3   S      49            72.2309100     .077219425841
      3   S      50            32.7250600    -.018748066960
      3   S      51            15.6676200    -.301142685047
      3   S      52             7.5034830    -.455805423402
      3   S      53             3.3122230     .128742141821
      3   S      54             1.5584710     .718866758868
      3   S      55              .6839140     .405476155884
      3   S      56              .1467570     .021698423346
      3   S      57              .0705830    -.008349781978

      4   S      58       4316265.0000000    -.000000278553
      4   S      59        646342.4000000    -.000002165994
      4   S      60        147089.7000000    -.000011393816
      4   S      61         41661.5200000    -.000048110671
      4   S      62         13590.7700000    -.000174989310
      4   S      63          4905.7500000    -.000567302987
      4   S      64          1912.7460000    -.001663419086
      4   S      65           792.6043000    -.004386786246
      4   S      66           344.8065000    -.010118228343
      4   S      67           155.8999000    -.019039595468
      4   S      68            72.2309100    -.022840460970
      4   S      69            32.7250600     .005696607559
      4   S      70            15.6676200     .092272032738
      4   S      71             7.5034830     .148282200741
      4   S      72             3.3122230    -.054130717799
      4   S      73             1.5584710    -.293639402038
      4   S      74              .6839140    -.332849490142
      4   S      75              .1467570     .368806068270
      4   S      76              .0705830     .776154536779

      5   S      77       4316265.0000000    -.000000404577
      5   S      78        646342.4000000    -.000003218215
      5   S      79        147089.7000000    -.000016378172
      5   S      80         41661.5200000    -.000072229168
      5   S      81         13590.7700000    -.000248633172
      5   S      82          4905.7500000    -.000862249815
      5   S      83          1912.7460000    -.002328546862
      5   S      84           792.6043000    -.006789387567
      5   S      85           344.8065000    -.013785703215
      5   S      86           155.8999000    -.030900463571
      5   S      87            72.2309100    -.026550287704
      5   S      88            32.7250600    -.009848809343
      5   S      89            15.6676200     .181826802311
      5   S      90             7.5034830     .154352368506
      5   S      91             3.3122230     .055554043396
      5   S      92             1.5584710    -.963809418374
      5   S      93              .6839140     .261030229083
      5   S      94              .1467570    1.850702894330
      5   S      95              .0705830    -.941798953107

      6   S      96              .0314490    1.000000000000

      7   P      97         17745.6900000     .000040999986
      7   P      98          4200.7210000     .000368999877
      7   P      99          1364.4290000     .002128999293
      7   P     100           522.0806000     .009368996887
      7   P     101           221.4595000     .033096989002
      7   P     102           100.9096000     .094430968621
      7   P     103            48.4011500     .208076930856
      7   P     104            23.9853600     .332332889566
      7   P     105            12.1825000     .332986889349
      7   P     106             6.2422980     .156842947881
      7   P     107             3.1109440     .021548992839
      7   P     108             1.5099580    -.002094999304
      7   P     109              .7108450    -.001738999422
      7   P     110              .2731900    -.000299999900
      7   P     111              .1042330     .000028999990

      8   P     112         17745.6900000    -.000015001691
      8   P     113          4200.7210000    -.000130014652
      8   P     114          1364.4290000    -.000751084646
      8   P     115           522.0806000    -.003329375216
      8   P     116           221.4595000    -.011913342616
      8   P     117           100.9096000    -.034936937340
      8   P     118            48.4011500    -.079998015655
      8   P     119            23.9853600    -.134651174984
      8   P     120            12.1825000    -.138613621545
      8   P     121             6.2422980     .030281412669
      8   P     122             3.1109440     .333253557172
      8   P     123             1.5099580     .456204413547
      8   P     124              .7108450     .285083128437
      8   P     125              .2731900     .046149200945
      8   P     126              .1042330    -.003249366199

      9   P     127         17745.6900000     .000004205905
      9   P     128          4200.7210000     .000040657083
      9   P     129          1364.4290000     .000231324783
      9   P     130           522.0806000     .001029044792
      9   P     131           221.4595000     .003681568969
      9   P     132           100.9096000     .010830205745
      9   P     133            48.4011500     .024861105304
      9   P     134            23.9853600     .042136159697
      9   P     135            12.1825000     .043592804845
      9   P     136             6.2422980    -.014086978294
      9   P     137             3.1109440    -.123802219871
      9   P     138             1.5099580    -.182009143122
      9   P     139              .7108450    -.107863241345
      9   P     140              .2731900     .298143997916
      9   P     141              .1042330     .803413402502

     10   P     142         17745.6900000     .000005217993
     10   P     143          4200.7210000     .000043831138
     10   P     144          1364.4290000     .000251507243
     10   P     145           522.0806000     .001132304392
     10   P     146           221.4595000     .003998025921
     10   P     147           100.9096000     .011921025867
     10   P     148            48.4011500     .026916492968
     10   P     149            23.9853600     .046771998365
     10   P     150            12.1825000     .046542406691
     10   P     151             6.2422980    -.011664300632
     10   P     152             3.1109440    -.144156437641
     10   P     153             1.5099580    -.196493946901
     10   P     154              .7108450    -.112081437200
     10   P     155              .2731900     .464258367369
     10   P     156              .1042330     .668152471358

     11   P     157              .0382910    1.000000000000

     12   D     158           113.3440000     .003585886554
     12   D     159            33.6414000     .026192209321
     12   D     160            12.3310000     .100688240604
     12   D     161             4.9947800     .242857976229
     12   D     162             2.0728000     .362854133469
     12   D     163              .8307530     .367922118743
     12   D     164              .3091780     .240204623345

     13   D     165           113.3440000    -.005011353860
     13   D     166            33.6414000    -.036640855136
     13   D     167            12.3310000    -.144838432671
     13   D     168             4.9947800    -.353315906298
     13   D     169             2.0728000    -.406507111828
     13   D     170              .8307530     .073571570070
     13   D     171              .3091780     .726071743121

     14   D     172              .1001300    1.000000000000

     15   F     173             3.2243000     .422249112711
     15   F     174              .7758000     .771468205928

 C         

     16   S     175          6665.0000000     .000691583963
     16   S     176          1000.0000000     .005325796153
     16   S     177           228.0000000     .027060721042
     16   S     178            64.7100000     .101656846141
     16   S     179            21.0600000     .274574823617
     16   S     180             7.4950000     .448294318924
     16   S     181             2.7970000     .284902610715
     16   S     182              .5215000     .015194859206

     17   S     183          6665.0000000    -.000293269653
     17   S     184          1000.0000000    -.002318035474
     17   S     185           228.0000000    -.011499786039
     17   S     186            64.7100000    -.046826727010
     17   S     187            21.0600000    -.128466168750
     17   S     188             7.4950000    -.301266272463
     17   S     189             2.7970000    -.255630702330
     17   S     190              .5215000    1.093793361012

     18   S     191              .1596000    1.000000000000

     19   P     192             9.4390000     .056979251590
     19   P     193             2.0020000     .313207211501
     19   P     194              .5456000     .760376741738

     20   P     195              .1517000    1.000000000000

     21   D     196              .5500000    1.000000000000

 O         

     22   S     197         11720.0000000     .000709645947
     22   S     198          1759.0000000     .005467272292
     22   S     199           400.8000000     .027823118610
     22   S     200           113.7000000     .104747739711
     22   S     201            37.0300000     .282920846357
     22   S     202            13.2700000     .448495238698
     22   S     203             5.0250000     .270816885213
     22   S     204             1.0130000     .015450291607

     23   S     205         11720.0000000    -.000314443412
     23   S     206          1759.0000000    -.002482137681
     23   S     207           400.8000000    -.012316355382
     23   S     208           113.7000000    -.050538917344
     23   S     209            37.0300000    -.139384903316
     23   S     210            13.2700000    -.325077494818
     23   S     211             5.0250000    -.229848307588
     23   S     212             1.0130000    1.095379346788

     24   S     213              .3023000    1.000000000000

     25   P     214            17.7000000     .062679166282
     25   P     215             3.8540000     .333536565879
     25   P     216             1.0460000     .741239641640

     26   P     217              .2753000    1.000000000000

     27   D     218             1.1850000    1.000000000000

 C         

     28   S     219          6665.0000000     .000691583963
     28   S     220          1000.0000000     .005325796153
     28   S     221           228.0000000     .027060721042
     28   S     222            64.7100000     .101656846141
     28   S     223            21.0600000     .274574823617
     28   S     224             7.4950000     .448294318924
     28   S     225             2.7970000     .284902610715
     28   S     226              .5215000     .015194859206

     29   S     227          6665.0000000    -.000293269653
     29   S     228          1000.0000000    -.002318035474
     29   S     229           228.0000000    -.011499786039
     29   S     230            64.7100000    -.046826727010
     29   S     231            21.0600000    -.128466168750
     29   S     232             7.4950000    -.301266272463
     29   S     233             2.7970000    -.255630702330
     29   S     234              .5215000    1.093793361012

     30   S     235              .1596000    1.000000000000

     31   P     236             9.4390000     .056979251590
     31   P     237             2.0020000     .313207211501
     31   P     238              .5456000     .760376741738

     32   P     239              .1517000    1.000000000000

     33   D     240              .5500000    1.000000000000

 O         

     34   S     241         11720.0000000     .000709645947
     34   S     242          1759.0000000     .005467272292
     34   S     243           400.8000000     .027823118610
     34   S     244           113.7000000     .104747739711
     34   S     245            37.0300000     .282920846357
     34   S     246            13.2700000     .448495238698
     34   S     247             5.0250000     .270816885213
     34   S     248             1.0130000     .015450291607

     35   S     249         11720.0000000    -.000314443412
     35   S     250          1759.0000000    -.002482137681
     35   S     251           400.8000000    -.012316355382
     35   S     252           113.7000000    -.050538917344
     35   S     253            37.0300000    -.139384903316
     35   S     254            13.2700000    -.325077494818
     35   S     255             5.0250000    -.229848307588
     35   S     256             1.0130000    1.095379346788

     36   S     257              .3023000    1.000000000000

     37   P     258            17.7000000     .062679166282
     37   P     259             3.8540000     .333536565879
     37   P     260             1.0460000     .741239641640

     38   P     261              .2753000    1.000000000000

     39   D     262             1.1850000    1.000000000000

 C         

     40   S     263          6665.0000000     .000691583963
     40   S     264          1000.0000000     .005325796153
     40   S     265           228.0000000     .027060721042
     40   S     266            64.7100000     .101656846141
     40   S     267            21.0600000     .274574823617
     40   S     268             7.4950000     .448294318924
     40   S     269             2.7970000     .284902610715
     40   S     270              .5215000     .015194859206

     41   S     271          6665.0000000    -.000293269653
     41   S     272          1000.0000000    -.002318035474
     41   S     273           228.0000000    -.011499786039
     41   S     274            64.7100000    -.046826727010
     41   S     275            21.0600000    -.128466168750
     41   S     276             7.4950000    -.301266272463
     41   S     277             2.7970000    -.255630702330
     41   S     278              .5215000    1.093793361012

     42   S     279              .1596000    1.000000000000

     43   P     280             9.4390000     .056979251590
     43   P     281             2.0020000     .313207211501
     43   P     282              .5456000     .760376741738

     44   P     283              .1517000    1.000000000000

     45   D     284              .5500000    1.000000000000

 O         

     46   S     285         11720.0000000     .000709645947
     46   S     286          1759.0000000     .005467272292
     46   S     287           400.8000000     .027823118610
     46   S     288           113.7000000     .104747739711
     46   S     289            37.0300000     .282920846357
     46   S     290            13.2700000     .448495238698
     46   S     291             5.0250000     .270816885213
     46   S     292             1.0130000     .015450291607

     47   S     293         11720.0000000    -.000314443412
     47   S     294          1759.0000000    -.002482137681
     47   S     295           400.8000000    -.012316355382
     47   S     296           113.7000000    -.050538917344
     47   S     297            37.0300000    -.139384903316
     47   S     298            13.2700000    -.325077494818
     47   S     299             5.0250000    -.229848307588
     47   S     300             1.0130000    1.095379346788

     48   S     301              .3023000    1.000000000000

     49   P     302            17.7000000     .062679166282
     49   P     303             3.8540000     .333536565879
     49   P     304             1.0460000     .741239641640

     50   P     305              .2753000    1.000000000000

     51   D     306             1.1850000    1.000000000000

 C         

     52   S     307          6665.0000000     .000691583963
     52   S     308          1000.0000000     .005325796153
     52   S     309           228.0000000     .027060721042
     52   S     310            64.7100000     .101656846141
     52   S     311            21.0600000     .274574823617
     52   S     312             7.4950000     .448294318924
     52   S     313             2.7970000     .284902610715
     52   S     314              .5215000     .015194859206

     53   S     315          6665.0000000    -.000293269653
     53   S     316          1000.0000000    -.002318035474
     53   S     317           228.0000000    -.011499786039
     53   S     318            64.7100000    -.046826727010
     53   S     319            21.0600000    -.128466168750
     53   S     320             7.4950000    -.301266272463
     53   S     321             2.7970000    -.255630702330
     53   S     322              .5215000    1.093793361012

     54   S     323              .1596000    1.000000000000

     55   P     324             9.4390000     .056979251590
     55   P     325             2.0020000     .313207211501
     55   P     326              .5456000     .760376741738

     56   P     327              .1517000    1.000000000000

     57   D     328              .5500000    1.000000000000

 O         

     58   S     329         11720.0000000     .000709645947
     58   S     330          1759.0000000     .005467272292
     58   S     331           400.8000000     .027823118610
     58   S     332           113.7000000     .104747739711
     58   S     333            37.0300000     .282920846357
     58   S     334            13.2700000     .448495238698
     58   S     335             5.0250000     .270816885213
     58   S     336             1.0130000     .015450291607

     59   S     337         11720.0000000    -.000314443412
     59   S     338          1759.0000000    -.002482137681
     59   S     339           400.8000000    -.012316355382
     59   S     340           113.7000000    -.050538917344
     59   S     341            37.0300000    -.139384903316
     59   S     342            13.2700000    -.325077494818
     59   S     343             5.0250000    -.229848307588
     59   S     344             1.0130000    1.095379346788

     60   S     345              .3023000    1.000000000000

     61   P     346            17.7000000     .062679166282
     61   P     347             3.8540000     .333536565879
     61   P     348             1.0460000     .741239641640

     62   P     349              .2753000    1.000000000000

     63   D     350             1.1850000    1.000000000000

 C         

     64   S     351          6665.0000000     .000691583963
     64   S     352          1000.0000000     .005325796153
     64   S     353           228.0000000     .027060721042
     64   S     354            64.7100000     .101656846141
     64   S     355            21.0600000     .274574823617
     64   S     356             7.4950000     .448294318924
     64   S     357             2.7970000     .284902610715
     64   S     358              .5215000     .015194859206

     65   S     359          6665.0000000    -.000293269653
     65   S     360          1000.0000000    -.002318035474
     65   S     361           228.0000000    -.011499786039
     65   S     362            64.7100000    -.046826727010
     65   S     363            21.0600000    -.128466168750
     65   S     364             7.4950000    -.301266272463
     65   S     365             2.7970000    -.255630702330
     65   S     366              .5215000    1.093793361012

     66   S     367              .1596000    1.000000000000

     67   P     368             9.4390000     .056979251590
     67   P     369             2.0020000     .313207211501
     67   P     370              .5456000     .760376741738

     68   P     371              .1517000    1.000000000000

     69   D     372              .5500000    1.000000000000

 O         

     70   S     373         11720.0000000     .000709645947
     70   S     374          1759.0000000     .005467272292
     70   S     375           400.8000000     .027823118610
     70   S     376           113.7000000     .104747739711
     70   S     377            37.0300000     .282920846357
     70   S     378            13.2700000     .448495238698
     70   S     379             5.0250000     .270816885213
     70   S     380             1.0130000     .015450291607

     71   S     381         11720.0000000    -.000314443412
     71   S     382          1759.0000000    -.002482137681
     71   S     383           400.8000000    -.012316355382
     71   S     384           113.7000000    -.050538917344
     71   S     385            37.0300000    -.139384903316
     71   S     386            13.2700000    -.325077494818
     71   S     387             5.0250000    -.229848307588
     71   S     388             1.0130000    1.095379346788

     72   S     389              .3023000    1.000000000000

     73   P     390            17.7000000     .062679166282
     73   P     391             3.8540000     .333536565879
     73   P     392             1.0460000     .741239641640

     74   P     393              .2753000    1.000000000000

     75   D     394             1.1850000    1.000000000000

 C         

     76   S     395          6665.0000000     .000691583963
     76   S     396          1000.0000000     .005325796153
     76   S     397           228.0000000     .027060721042
     76   S     398            64.7100000     .101656846141
     76   S     399            21.0600000     .274574823617
     76   S     400             7.4950000     .448294318924
     76   S     401             2.7970000     .284902610715
     76   S     402              .5215000     .015194859206

     77   S     403          6665.0000000    -.000293269653
     77   S     404          1000.0000000    -.002318035474
     77   S     405           228.0000000    -.011499786039
     77   S     406            64.7100000    -.046826727010
     77   S     407            21.0600000    -.128466168750
     77   S     408             7.4950000    -.301266272463
     77   S     409             2.7970000    -.255630702330
     77   S     410              .5215000    1.093793361012

     78   S     411              .1596000    1.000000000000

     79   P     412             9.4390000     .056979251590
     79   P     413             2.0020000     .313207211501
     79   P     414              .5456000     .760376741738

     80   P     415              .1517000    1.000000000000

     81   D     416              .5500000    1.000000000000

 O         

     82   S     417         11720.0000000     .000709645947
     82   S     418          1759.0000000     .005467272292
     82   S     419           400.8000000     .027823118610
     82   S     420           113.7000000     .104747739711
     82   S     421            37.0300000     .282920846357
     82   S     422            13.2700000     .448495238698
     82   S     423             5.0250000     .270816885213
     82   S     424             1.0130000     .015450291607

     83   S     425         11720.0000000    -.000314443412
     83   S     426          1759.0000000    -.002482137681
     83   S     427           400.8000000    -.012316355382
     83   S     428           113.7000000    -.050538917344
     83   S     429            37.0300000    -.139384903316
     83   S     430            13.2700000    -.325077494818
     83   S     431             5.0250000    -.229848307588
     83   S     432             1.0130000    1.095379346788

     84   S     433              .3023000    1.000000000000

     85   P     434            17.7000000     .062679166282
     85   P     435             3.8540000     .333536565879
     85   P     436             1.0460000     .741239641640

     86   P     437              .2753000    1.000000000000

     87   D     438             1.1850000    1.000000000000

 TOTAL NUMBER OF BASIS SET SHELLS             =   87
 NUMBER OF CARTESIAN GAUSSIAN BASIS FUNCTIONS =  229
 NOTE: THIS RUN WILL RESTRICT THE MO VARIATION SPACE TO SPHERICAL HARMONICS.
 THE NUMBER OF ORBITALS KEPT IN THE VARIATIONAL SPACE WILL BE PRINTED LATER.
 NUMBER OF ELECTRONS                          =  108
 CHARGE OF MOLECULE                           =    2
 SPIN MULTIPLICITY                            =    5
 NUMBER OF OCCUPIED ORBITALS (ALPHA)          =   56
 NUMBER OF OCCUPIED ORBITALS (BETA )          =   52
 TOTAL NUMBER OF ATOMS                        =   13
 THE NUCLEAR REPULSION ENERGY IS      894.6307534659
 NOTE THIS RUN IS USING CORE POTENTIALS, AND THE NUMBER OF ELECTRONS,
 OCCUPIED ORBITALS, AND NUCLEAR REPULSION ENERGY WILL BE ADJUSTED BELOW
 AFTER REMOVAL OF THE CORE CHARGES.

     LEBEDEV GRID-BASED DFT OPTIONS
     ------------------------------
     DFTTYP=B3LYP   
     NRAD  =      96     NLEB  =     302
     NRAD0 =      24     NLEB0 =     110
     SWOFF =    5.00E-03 (PURE SCF -> DFT)
     SWITCH=    3.00E-04 (COARSE -> TIGHT GRID)
     THRESH=    0.00E+00 GTHRE=    1.00E+00

 GRIMME'S EMPIRICAL DISPERSION CORRECTION= F

     $CONTRL OPTIONS
     ---------------
 SCFTYP=ROHF         RUNTYP=ENERGY       EXETYP=RUN     
 MPLEVL=       0     CITYP =NONE         CCTYP =NONE         VBTYP =NONE    
 DFTTYP=B3LYP        TDDFT =NONE    
 MULT  =       5     ICHARG=       2     NZVAR =       0     COORD =UNIQUE  
 PP    =READ         RELWFN=NONE         LOCAL =NONE         NUMGRD=       F
 ISPHER=       1     NOSYM =       0     MAXIT =     200     UNITS =ANGS    
 PLTORB=       F     MOLPLT=       F     AIMPAC=       F     FRIEND=        
 NPRINT=       7     IREST =       0     GEOM  =INPUT   
 NORMF =       0     NORMP =       0     ITOL  =      20     ICUT  =       9
 INTTYP=BEST         GRDTYP=BEST         QMTTOL= 1.0E-06

     $SYSTEM OPTIONS
     ---------------
  REPLICATED MEMORY=   150000000 WORDS (ON EVERY NODE).
 DISTRIBUTED MEMDDI=           0 MILLION WORDS IN AGGREGATE,
 MEMDDI DISTRIBUTED OVER 128 PROCESSORS IS           0 WORDS/PROCESSOR.
 TOTAL MEMORY REQUESTED ON EACH PROCESSOR=   150000000 WORDS.
 TIMLIM=      525600.00 MINUTES, OR     365.0 DAYS.
 PARALL= T  BALTYP=  SLB     KDIAG=    0  COREFL= F
 MXSEQ2=     300 MXSEQ3=     150

          --------------
          ECP POTENTIALS
          --------------

 PARAMETERS FOR "FE-QMC_S" ON ATOM    1 WITH ZCORE  10 AND LMAX  2 ARE
 FOR L= 2      COEFF    N           ZETA
    1       16.00000    1        3.72076
    2       59.53210    3        3.92321
    3      -68.75848    2        3.89595
 FOR L= 0      COEFF    N           ZETA
    1      112.92561    2       10.42344
 FOR L= 1      COEFF    N           ZETA
    1       52.55883    2        8.41664

 PARAMETERS FOR "C-QMC   " ON ATOM    2 WITH ZCORE   2 AND LMAX  1 ARE
 FOR L= 1      COEFF    N           ZETA
    1        4.00000    1        8.35974
    2       33.43895    3        4.48362
    3      -19.17537    2        3.93831
 FOR L= 0      COEFF    N           ZETA
    1       22.55164    2        5.02992

 PARAMETERS FOR "O-QMC   " ON ATOM    3 WITH ZCORE   2 AND LMAX  1 ARE
 FOR L= 1      COEFF    N           ZETA
    1        6.00000    1        9.29794
    2       55.78763    3        8.86492
    3      -38.81978    2        8.62926
 FOR L= 0      COEFF    N           ZETA
    1       38.41914    2        8.71924

 PARAMETERS FOR "C-QMC   " ON ATOM    4 ARE THE SAME AS ATOM   2

 PARAMETERS FOR "O-QMC   " ON ATOM    5 ARE THE SAME AS ATOM   3

 PARAMETERS FOR "C-QMC   " ON ATOM    6 ARE THE SAME AS ATOM   2

 PARAMETERS FOR "O-QMC   " ON ATOM    7 ARE THE SAME AS ATOM   3

 PARAMETERS FOR "C-QMC   " ON ATOM    8 ARE THE SAME AS ATOM   2

 PARAMETERS FOR "O-QMC   " ON ATOM    9 ARE THE SAME AS ATOM   3

 PARAMETERS FOR "C-QMC   " ON ATOM   10 ARE THE SAME AS ATOM   2

 PARAMETERS FOR "O-QMC   " ON ATOM   11 ARE THE SAME AS ATOM   3

 PARAMETERS FOR "C-QMC   " ON ATOM   12 ARE THE SAME AS ATOM   2

 PARAMETERS FOR "O-QMC   " ON ATOM   13 ARE THE SAME AS ATOM   3

 THE ECP RUN REMOVES   34 CORE ELECTRONS, AND THE SAME NUMBER OF PROTONS.
 NUMBER OF ELECTRONS KEPT IN THE CALCULATION IS =   74
 NUMBER OF OCCUPIED ORBITALS (ALPHA) KEPT IS    =   39
 NUMBER OF OCCUPIED ORBITALS (BETA ) KEPT IS    =   35
 THE ADJUSTED NUCLEAR REPULSION ENERGY=      422.4303659912
          ECP ANGULAR INTS.........      .02 SECONDS

          ----------------
          PROPERTIES INPUT
          ----------------

     MOMENTS            FIELD           POTENTIAL          DENSITY
 IEMOM =       1   IEFLD =       0   IEPOT =       0   IEDEN =       0
 WHERE =COMASS     WHERE =NUCLEI     WHERE =NUCLEI     WHERE =NUCLEI  
 OUTPUT=BOTH       OUTPUT=BOTH       OUTPUT=BOTH       OUTPUT=BOTH    
 IEMINT=       0   IEFINT=       0                     IEDINT=       0
                                                       MORB  =       0
          EXTRAPOLATION IN EFFECT
          DIIS IN EFFECT
 ORBITAL PRINTING OPTION: NPREO=     1   229     2     1

     -------------------------------
     INTEGRAL TRANSFORMATION OPTIONS
     -------------------------------
     NWORD  =            0
     CUTOFF = 1.0E-09     MPTRAN =       0
     DIRTRF =       T     AOINTS =DUP     

          ----------------------
          INTEGRAL INPUT OPTIONS
          ----------------------
 NOPK  =       1 NORDER=       0 SCHWRZ=       T

     ------------------------------------------
     THE POINT GROUP IS C1 , NAXIS= 0, ORDER= 1
     ------------------------------------------

 -- VARIATIONAL SPACE WILL BE RESTRICTED TO PURE SPHERICAL HARMONICS ONLY --
 AFTER EXCLUDING CONTAMINANT COMBINATIONS FROM THE CARTESIAN GAUSSIAN BASIS
 SET, THE NUMBER OF SPHERICAL HARMONICS KEPT IN THE VARIATION SPACE IS  211

     DIMENSIONS OF THE SYMMETRY SUBSPACES ARE
 A   =  211

 ..... DONE SETTING UP THE RUN .....
 CPU     0: STEP CPU TIME=     1.48 TOTAL CPU TIME=        1.5 (     .0 MIN)
 TOTAL WALL CLOCK TIME=        1.0 SECONDS, CPU UTILIZATION IS 155.00%

          ********************
          1 ELECTRON INTEGRALS
          ********************
 TIME TO DO ORDINARY INTEGRALS=       .03
 TIME TO DO      ECP INTEGRALS=       .16
 ...... END OF ONE-ELECTRON INTEGRALS ......
 CPU     0: STEP CPU TIME=      .19 TOTAL CPU TIME=        1.7 (     .0 MIN)
 TOTAL WALL CLOCK TIME=        2.0 SECONDS, CPU UTILIZATION IS  87.00%

          -------------
          GUESS OPTIONS
          -------------
          GUESS =HUCKEL            NORB  =       0          NORDER=       0
          MIX   =       F          PRTMO =       F          PUNMO =       F
          TOLZ  = 1.0E-08          TOLE  = 1.0E-05
          SYMDEN=       F          PURIFY=       F

 INITIAL GUESS ORBITALS GENERATED BY HUCKEL   ROUTINE.
 HUCKEL GUESS REQUIRES    410535 WORDS.

 STATISTICS FOR GENERATION OF SYMMETRY ORBITAL -Q- MATRIX
 NUMBER OF CARTESIAN ATOMIC ORBITALS=        229
 NUMBER OF SPHERICAL CONTAMINANTS DROPPED=    18
 NUMBER OF LINEARLY DEPENDENT MOS DROPPED=     0
 TOTAL NUMBER OF MOS IN VARIATION SPACE=     211

 SYMMETRIES FOR INITIAL GUESS ORBITALS FOLLOW.  ALPHA SET(S).
    39 ORBITALS ARE OCCUPIED (    4 CORE ORBITALS).
     5=A        6=A        7=A        8=A        9=A       10=A       11=A   
    12=A       13=A       14=A       15=A       16=A       17=A       18=A   
    19=A       20=A       21=A       22=A       23=A       24=A       25=A   
    26=A       27=A       28=A       29=A       30=A       31=A       32=A   
    33=A       34=A       35=A       36=A       37=A       38=A       39=A   
    40=A       41=A       42=A       43=A       44=A       45=A       46=A   
    47=A       48=A       49=A   

 SYMMETRIES FOR INITIAL GUESS ORBITALS FOLLOW.   BETA SET(S).
    35 ORBITALS ARE OCCUPIED (    4 CORE ORBITALS).
     5=A        6=A        7=A        8=A        9=A       10=A       11=A   
    12=A       13=A       14=A       15=A       16=A       17=A       18=A   
    19=A       20=A       21=A       22=A       23=A       24=A       25=A   
    26=A       27=A       28=A       29=A       30=A       31=A       32=A   
    33=A       34=A       35=A       36=A       37=A       38=A       39=A   
    40=A       41=A       42=A       43=A       44=A       45=A   
 ...... END OF INITIAL ORBITAL SELECTION ......
 CPU     0: STEP CPU TIME=     1.00 TOTAL CPU TIME=        2.7 (     .0 MIN)
 TOTAL WALL CLOCK TIME=        3.0 SECONDS, CPU UTILIZATION IS  91.33%

                    ----------------------
                    AO INTEGRAL TECHNOLOGY
                    ----------------------
     S,P,L SHELL ROTATED AXIS INTEGRALS, REPROGRAMMED BY
        KAZUYA ISHIMURA (IMS) AND JOSE SIERRA (SYNSTAR).
     S,P,D,L SHELL ROTATED AXIS INTEGRALS PROGRAMMED BY
        KAZUYA ISHIMURA (INSTITUTE FOR MOLECULAR SCIENCE).
     S,P,D,F,G SHELL TO TOTAL QUARTET ANGULAR MOMENTUM SUM 5,
        ERIC PROGRAM BY GRAHAM FLETCHER (ELORET AND NASA ADVANCED
        SUPERCOMPUTING DIVISION, AMES RESEARCH CENTER).
     S,P,D,F,G,L SHELL GENERAL RYS QUADRATURE PROGRAMMED BY
        MICHEL DUPUIS (PACIFIC NORTHWEST NATIONAL LABORATORY).

          --------------------
          2 ELECTRON INTEGRALS
          --------------------

 DIRECT SCF METHOD SKIPS INTEGRAL STORAGE ON DISK.
 DIRECT TRANSFORMATION SKIPS AO INTEGRAL STORAGE ON DISK.
  ...... END OF TWO-ELECTRON INTEGRALS .....
 CPU     0: STEP CPU TIME=      .12 TOTAL CPU TIME=        2.9 (     .0 MIN)
 TOTAL WALL CLOCK TIME=        3.0 SECONDS, CPU UTILIZATION IS  95.33%

          ---------------------------
             RO-B3LYP SCF CALCULATION
          ---------------------------

     NUCLEAR ENERGY =       422.4303659912
     MAXIT =200     NPUNCH=  2     MULT=  5
     EXTRAP=T  DAMP=F  SHIFT=F  RSTRCT=F  DIIS=T  SOSCF=T
         DENSITY MATRIX CONVERGENCE THRESHOLD=  2.00E-05
     COARSE -> FINE DFT GRID SWITCH THRESHOLD=  3.00E-04 (SWITCH IN $DFT)
                   HF -> DFT SWITCH THRESHOLD=  5.00E-03 (SWOFF IN $DFT)
     ROHF CANONICALIZATION PARAMETERS
             C-C     O-O     V-V
     ALPHA  -.5000   .5000  1.5000
     BETA   1.5000   .5000  -.5000
     SOSCF WILL OPTIMIZE    6848 ORBITAL ROTATION ANGLES. SOGTOL= 2.500E-01
     MEMORY REQUIRED FOR UHF/ROHF ITERS=    716289 WORDS.

 DIRECT SCF CALCULATION, SCHWRZ=T   FDIFF=T
 SCHWARZ INEQUALITY OVERHEAD:     23638 INTEGRALS, T=         .22

 DFT CODE IS SWITCHING FROM THE FINE GRID NRAD= 96,  NLEB=  302
                      TO THE COARSE GRID NRAD0= 24, NLEB0=  110

     EXCHANGE FUNCTIONAL   =B88&HFX   
     CORRELATION FUNCTIONAL=LYP88&VWN5
     DFT THRESHOLD         =.106E-07
     GRID CHANGE THRESHOLD =.300E-03
 FOR AN EULER-MACLAURIN QUADRATURE USING  96 RADIAL POINTS:
 SMALLEST GAUSSIAN PRIMITIVE EXPONENT=         .0314490000 OF TYPE -S-
 ON ATOM NUMBER   1 HAS RADIAL NORMALIZATION=  1.000000
  LARGEST GAUSSIAN PRIMITIVE EXPONENT=  4316265.0000000000 OF TYPE -S-
 ON ATOM NUMBER   1 HAS RADIAL NORMALIZATION=   .835179

          **************************************************
          *                                                *
          * WARNING: QUESTIONABLE SELECTION OF RADIAL GRID *
          *                                                *
          **************************************************

 THIS RUN HAS REQUESTED NRAD=  96 IN $DFT OR $TDDFT
 ATOM=    1 HAS LARGE EXPONENT=       4316265.000000000000000
 RECOMMEND NRAD ABOVE  50 FOR ZETA'S ABOVE 1E+4
 RECOMMEND NRAD ABOVE  75 FOR ZETA'S ABOVE 1E+5
 RECOMMEND NRAD ABOVE 125 FOR ZETA'S ABOVE 1E+6
 DFT IS SWITCHED OFF, PERFORMING PURE SCF UNTIL SWOFF THRESHOLD IS REACHED.

                                                                                NONZERO     BLOCKS
 ITER EX      TOTAL ENERGY        E CHANGE  DENSITY CHANGE    DIIS ERROR      INTEGRALS    SKIPPED
   1  0     -244.1204695033  -244.1204695033    .648724611   7.758884724      124766785    3591121
          * * *   INITIATING DIIS PROCEDURE   * * *
   2  1     -248.1640007025    -4.0435311993    .218786582    .207265489      124936324    3627247
   3  2     -248.1258929459      .0381077566    .169317283    .203143747      123554738    3833494
   4  3     -248.5685091932     -.4426162472    .151536826    .052730128      122400807    3942677
   5  4     -248.5796076594     -.0110984663    .071106997    .032177538      118926023    4212197
   6  5     -248.5837422141     -.0041345546    .006950727    .005784365      116473952    4330509
         SWDIIS THRESHOLD HAS BEEN REACHED: SWITCHING DIIS OFF.
          ---------------START SECOND ORDER SCF---------------
   7  6     -248.5839155639     -.0001733498    .003862381    .002189937      112450187    4581555
 CONVERGED TO SWOFF, SO DFT CALCULATION IS NOW SWITCHED ON.
          ---------------START SECOND ORDER SCF---------------
   8  7     -251.6444767208    -3.0605611570    .101708911    .035766665      124719044    3638100
   9  8     -251.6999754395     -.0554987187    .048096186    .011794121      121954714    3994988
  10  9     -251.7032478605     -.0032724210    .017004213    .007869247      119792513    4164252
  11 10     -251.7054681013     -.0022202409    .011660357    .003018190      115302608    4409983
  12 11     -251.7055322834     -.0000641820    .007484936    .003024631      113822737    4490201
  13 12     -251.7056146613     -.0000823779    .002539970    .000594929      110200928    4642878
  14 13     -251.7056243469     -.0000096856    .002427643    .000310267      107322755    4780534
  15 14     -251.7056266972     -.0000023504    .003218506    .000310746      103672180    4950551
  16 15     -251.7056284617     -.0000017644    .011646517    .000309653      103337851    4968790
  17 16     -251.7056324436     -.0000039819    .027928203    .000633783      107315766    4798300
  18 17     -251.7056392631     -.0000068195    .062188549    .001145260      109630916    4707668
  19 18     -251.7056555140     -.0000162510    .088444515    .001545729      111774383    4626118
  20 19     -251.7056923342     -.0000368201    .066935180    .001324159      112482806    4608698
  21 20     -251.7057413796     -.0000490455    .053767296    .000677465      112438729    4587753
  22 21     -251.7057569587     -.0000155791    .018689994    .000138685      111639111    4619643
  23 22     -251.7057578566     -.0000008979    .006944046    .000149435      106549531    4865419
  24 23     -251.7057581695     -.0000003129    .001923657    .000048914      102673507    5017086
  25 24     -251.7057582144     -.0000000449    .001046403    .000013927       96990422    5212250
  26 25     -251.7057582241     -.0000000097    .000960822    .000005127       92606370    5361237
  27 26     -251.7057582261     -.0000000020    .000123826    .000007570       89699927    5470736
 DFT CODE IS SWITCHING BACK TO THE FINE GRID
          ---------------START SECOND ORDER SCF---------------
  28 27     -251.6411161340      .0646420921    .029829282    .008995314      124704458    3632829
  29 28     -251.6426958124     -.0015796784    .010066198    .001594481      118222778    4264895
  30 29     -251.6427382037     -.0000423913    .007887182    .002577651      114331944    4475996
  31 30     -251.6427748284     -.0000366247    .002526143    .000711526      109121591    4684649
  32 31     -251.6427798264     -.0000049980    .000419806    .000278364      109482559    4698771
  33 32     -251.6427812379     -.0000014115    .000310496    .000104109      102518456    4992520
  34 33     -251.6427816242     -.0000003864    .000148890    .000025341      100925429    5051692
  35 34     -251.6427816553     -.0000000311    .000121533    .000019287       95435153    5242985
  36 35     -251.6427816649     -.0000000095    .000595798    .000019206       85375773    5535463
  37 36     -251.6427816789     -.0000000140    .000896638    .000018681       94120089    5314653
  38 37     -251.6427816924     -.0000000135    .002903072    .000027150       93430415    5355867
  39 38     -251.6427817248     -.0000000324    .005203798    .000049918       98613857    5194687
  40 39     -251.6427818004     -.0000000756    .005331733    .000063811      100296216    5131049
  41 40     -251.6427819187     -.0000001183    .001767815    .000047581      100743503    5110218
  42 41     -251.6427819826     -.0000000639    .000543759    .000016422       98054698    5205672
  43 42     -251.6427819899     -.0000000073    .000386939    .000001606       91555682    5403759
  44 43     -251.6427819913     -.0000000014    .000065070    .000001107       83249717    5628233
  45 44     -251.6427819935     -.0000000023    .000019342    .000000960       69350052    5917755
  46 45     -251.6427819951     -.0000000016    .000003126    .000000103       59250243    6129143

          -----------------
          DENSITY CONVERGED
          -----------------
     TIME TO FORM FOCK OPERATORS=     309.9 SECONDS (       6.7 SEC/ITER)
     FOCK TIME ON FIRST ITERATION=       7.2, LAST ITERATION=       6.0
     TIME TO SOLVE SCF EQUATIONS=       8.7 SECONDS (        .2 SEC/ITER)
 WARNING: SWAPPED  2 BETA  ORBITAL(S) AFTER FINAL CANONICALIZATION
          SO ORBITAL ORDER MATCHES THE ROHF DENSITY

 FINAL RO-B3LYP ENERGY IS     -251.6427819951 AFTER  46 ITERATIONS
 DFT EXCHANGE + CORRELATION ENERGY =       -34.8701313553
 TOTAL ELECTRON NUMBER             =        74.0000630617

          --------------------
          SPIN SZ   =    2.000
          S-SQUARED =    6.000
          --------------------

          ------------
          EIGENVECTORS
          ------------

                      1          2          3          4          5
                   -3.7476    -2.5664    -2.5650    -2.5405    -1.4950
                     A          A          A          A          A   
    1  FE 1  S     .069041    .000000    .000000    .000000   -.000050
    2  FE 1  S     .319067    .000000    .000000    .000000   -.000160
    3  FE 1  S     .764806    .000000    .000000    .000000   -.000762
    4  FE 1  S    -.507712    .000000    .000000    .000000   -.001992
    5  FE 1  S     .188263    .000000    .000000    .000000    .000303
    6  FE 1  S     .140317    .000000    .000000    .000000    .000402
    7  FE 1  X     .000000   -.000082    .336146    .000004    .000000
    8  FE 1  Y     .000000    .241434    .000056    .234112   -.000120
    9  FE 1  Z     .000000   -.233996   -.000060    .241564    .002053
   10  FE 1  X     .000000   -.000228    .932937    .000011    .000001
   11  FE 1  Y     .000000    .670385    .000156    .649454   -.001596
   12  FE 1  Z     .000000   -.649745   -.000167    .670146    .025569
   13  FE 1  X     .000000    .000048   -.194544   -.000001    .000010
   14  FE 1  Y     .000000   -.135359   -.000031   -.127073   -.007135
   15  FE 1  Z     .000000    .130938    .000034   -.130799    .207156
   16  FE 1  X     .000000   -.000043    .173897    .000001   -.000008
   17  FE 1  Y     .000000    .121818    .000028    .111903    .002749
   18  FE 1  Z     .000000   -.117873   -.000031    .115228   -.130002
   19  FE 1  X     .000000   -.000001    .003763    .000000    .000000
   20  FE 1  Y     .000000    .002404    .000001    .002599    .001811
   21  FE 1  Z     .000000   -.002310    .000000    .002659   -.015831
   22  FE 1 XX    -.001529    .000000    .000000    .000000    .000044
   23  FE 1 YY     .000672    .000000    .000000    .000000   -.000008
   24  FE 1 ZZ     .000857    .000000    .000000    .000000   -.000036
   25  FE 1 XY     .000000    .000000    .000000    .000000    .000000
   26  FE 1 XZ     .000000    .000000    .000000    .000000    .000000
   27  FE 1 YZ     .002051    .000000    .000000    .000000    .000003
   28  FE 1 XX     .000625    .000000    .000000    .000000    .000052
   29  FE 1 YY    -.000289    .000000    .000000    .000000   -.000009
   30  FE 1 ZZ    -.000336    .000000    .000000    .000000   -.000043
   31  FE 1 XY     .000000    .000000    .000000    .000000    .000000
   32  FE 1 XZ     .000000    .000000    .000000    .000000    .000000
   33  FE 1 YZ    -.001908    .000000    .000000    .000000    .000003
   34  FE 1 XX    -.004199    .000000    .000000    .000000    .000438
   35  FE 1 YY     .001767    .000000    .000000    .000000   -.000075
   36  FE 1 ZZ     .002432    .000000    .000000    .000000   -.000363
   37  FE 1 XY     .000001    .000000    .000000    .000000    .000000
   38  FE 1 XZ     .000001    .000000    .000000    .000000    .000000
   39  FE 1 YZ     .000383    .000000    .000000    .000000   -.000030
   40  FE 1 XXX    .000000    .000001   -.002801    .000000    .000000
   41  FE 1 YYY    .000000    .001434    .000000   -.000568   -.000118
   42  FE 1 ZZZ    .000000   -.001625    .000000   -.000351    .001640
   43  FE 1 XXY    .000000    .000581    .000000   -.001928    .000072
   44  FE 1 XXZ    .000000   -.000554    .000000   -.001999   -.001099
   45  FE 1 YYX    .000000    .000000    .001841    .000000    .000000
   46  FE 1 YYZ    .000000    .002734    .000001    .002471   -.001101
   47  FE 1 ZZX    .000000    .000000    .001917    .000000    .000000
   48  FE 1 ZZY    .000000   -.002505   -.000001    .002691    .000086
   49  FE 1 XYZ    .000000    .000000    .001101    .000000    .000000
   50  C  2  S    -.010450   -.000058    .000000    .000032   -.060106
   51  C  2  S    -.019035   -.000256    .000000    .000237   -.127104
   52  C  2  S     .072978   -.010096   -.000003    .010955   -.065492
   53  C  2  X     .000000    .000000   -.000039    .000000    .000004
   54  C  2  Y    -.000129   -.000095    .000000    .000001    .005036
   55  C  2  Z     .003903    .001528    .000000   -.001756   -.161234
   56  C  2  X     .000000   -.000001    .004669    .000000   -.000001
   57  C  2  Y     .000179    .003304    .000001    .003200   -.001064
   58  C  2  Z    -.061699    .004299    .000001   -.005510    .059672
   59  C  2 XX    -.000730   -.000217    .000000    .000165    .013909
   60  C  2 YY    -.000814   -.000221    .000000    .000170    .013828
   61  C  2 ZZ     .001544    .000438    .000000   -.000335   -.027738
   62  C  2 XY     .000000    .000000   -.000021    .000000    .000000
   63  C  2 XZ     .000000    .000000   -.000541    .000000    .000001
   64  C  2 YZ     .000038   -.000336    .000000   -.000377    .001350
   65  O  3  S    -.001850   -.000201    .000000    .000069   -.122397
   66  O  3  S    -.003249   -.000349    .000000    .000112   -.237411
   67  O  3  S     .017964    .000777    .000001   -.000026   -.293952
   68  O  3  X     .000000    .000000    .000346    .000000   -.000004
   69  O  3  Y    -.000024    .000255    .000000    .000221   -.004175
   70  O  3  Z    -.000024   -.000072    .000000    .000206    .139377
   71  O  3  X     .000000    .000000   -.001782    .000000   -.000001
   72  O  3  Y     .000433   -.001271    .000000   -.001205   -.001347
   73  O  3  Z     .001286   -.000891    .000000    .000838    .036969
   74  O  3 XX     .000095    .000012    .000000   -.000001    .008028
   75  O  3 YY     .000098    .000010    .000000    .000000    .007982
   76  O  3 ZZ    -.000193   -.000022    .000000    .000000   -.016010
   77  O  3 XY     .000000    .000000    .000002    .000000    .000000
   78  O  3 XZ     .000000    .000000    .000002    .000000    .000001
   79  O  3 YZ     .000005    .000018    .000000   -.000008    .000830
   80  C  4  S    -.010829    .000000   -.000014    .000000    .000054
   81  C  4  S    -.019684    .000000    .000210    .000000    .000114
   82  C  4  S     .081718   -.000004    .015710    .000000   -.000022
   83  C  4  X     .003702    .000001   -.002309    .000000    .000122
   84  C  4  Y     .000000    .000000    .000000   -.000022    .000131
   85  C  4  Z     .000000    .000002    .000000   -.000024   -.001000
   86  C  4  X    -.062753    .000002   -.007305    .000000   -.000088
   87  C  4  Y     .000000    .003461    .000001    .003335   -.000366
   88  C  4  Z     .000000   -.003355   -.000001    .003440   -.001378
   89  C  4 XX     .001884    .000000   -.000621    .000000    .000034
   90  C  4 YY    -.000937    .000000    .000310    .000000   -.000019
   91  C  4 ZZ    -.000947    .000000    .000311    .000000   -.000015
   92  C  4 XY     .000000   -.000372    .000000   -.000362   -.000071
   93  C  4 XZ     .000000    .000360    .000000   -.000372    .001395
   94  C  4 YZ    -.000017    .000000   -.000013    .000000    .000001
   95  O  5  S    -.001670    .000000    .000200    .000000    .000096
   96  O  5  S    -.002931    .000000    .000344    .000000    .000187
   97  O  5  S     .015959    .000000   -.000486    .000000    .000282
   98  O  5  X     .000137    .000000    .000148    .000000   -.000112
   99  O  5  Y     .000000    .000267    .000000    .000254   -.000004
  100  O  5  Z     .000000   -.000260    .000000    .000263   -.000205
  101  O  5  X     .002038    .000000    .001178    .000000   -.000048
  102  O  5  Y     .000000   -.001292    .000000   -.001260    .000125
  103  O  5  Z     .000000    .001252    .000000   -.001299    .000248
  104  O  5 XX    -.000242    .000000    .000033    .000000    .000013
  105  O  5 YY     .000121    .000000   -.000017    .000000   -.000006
  106  O  5 ZZ     .000121    .000000   -.000017    .000000   -.000007
  107  O  5 XY     .000000    .000006    .000000    .000004   -.000018
  108  O  5 XZ     .000000   -.000006    .000000    .000004    .000231
  109  O  5 YZ     .000001    .000000    .000002    .000000    .000000
  110  C  6  S    -.010829    .000000    .000014    .000000    .000054
  111  C  6  S    -.019684    .000000   -.000210    .000000    .000114
  112  C  6  S     .081718    .000004   -.015710    .000000   -.000020
  113  C  6  X    -.003702    .000001   -.002309    .000000   -.000123
  114  C  6  Y     .000000    .000000    .000000   -.000022    .000131
  115  C  6  Z     .000000    .000002    .000000   -.000024   -.001000
  116  C  6  X     .062753    .000002   -.007305    .000000    .000089
  117  C  6  Y     .000000    .003461    .000001    .003335   -.000366
  118  C  6  Z     .000000   -.003355   -.000001    .003440   -.001378
  119  C  6 XX     .001884    .000000    .000621    .000000    .000034
  120  C  6 YY    -.000937    .000000   -.000310    .000000   -.000019
  121  C  6 ZZ    -.000947    .000000   -.000311    .000000   -.000015
  122  C  6 XY     .000000    .000372    .000000    .000362    .000071
  123  C  6 XZ     .000000   -.000360    .000000    .000372   -.001395
  124  C  6 YZ    -.000017    .000000    .000013    .000000    .000001
  125  O  7  S    -.001670    .000000   -.000200    .000000    .000096
  126  O  7  S    -.002931    .000000   -.000344    .000000    .000187
  127  O  7  S     .015959    .000000    .000487    .000000    .000282
  128  O  7  X    -.000137    .000000    .000148    .000000    .000112
  129  O  7  Y     .000000    .000267    .000000    .000254   -.000004
  130  O  7  Z     .000000   -.000260    .000000    .000263   -.000205
  131  O  7  X    -.002038    .000000    .001178    .000000    .000048
  132  O  7  Y     .000000   -.001292    .000000   -.001260    .000125
  133  O  7  Z     .000000    .001252    .000000   -.001299    .000248
  134  O  7 XX    -.000242    .000000   -.000033    .000000    .000013
  135  O  7 YY     .000121    .000000    .000017    .000000   -.000006
  136  O  7 ZZ     .000121    .000000    .000017    .000000   -.000007
  137  O  7 XY     .000000   -.000006    .000000   -.000004    .000018
  138  O  7 XZ     .000000    .000006    .000000   -.000004   -.000231
  139  O  7 YZ     .000001    .000000   -.000002    .000000    .000000
  140  C  8  S    -.010450    .000058    .000000   -.000032    .061600
  141  C  8  S    -.019035    .000256    .000000   -.000237    .130271
  142  C  8  S     .072979    .010096    .000003   -.010955    .067662
  143  C  8  X     .000000    .000000   -.000039    .000000    .000004
  144  C  8  Y     .000129   -.000095    .000000    .000001    .005163
  145  C  8  Z    -.003903    .001528    .000000   -.001756   -.165282
  146  C  8  X     .000000   -.000001    .004669    .000000   -.000001
  147  C  8  Y    -.000179    .003304    .000001    .003200   -.001105
  148  C  8  Z     .061698    .004299    .000001   -.005510    .061051
  149  C  8 XX    -.000730    .000217    .000000   -.000165   -.014289
  150  C  8 YY    -.000814    .000221    .000000   -.000170   -.014194
  151  C  8 ZZ     .001544   -.000438    .000000    .000335    .028483
  152  C  8 XY     .000000    .000000    .000021    .000000    .000000
  153  C  8 XZ     .000000    .000000    .000541    .000000   -.000001
  154  C  8 YZ     .000038    .000336    .000000    .000377   -.001390
  155  O  9  S    -.001850    .000201    .000000   -.000069    .125482
  156  O  9  S    -.003248    .000349    .000000   -.000112    .243392
  157  O  9  S     .017963   -.000777   -.000001    .000026    .301084
  158  O  9  X     .000000    .000000    .000346    .000000   -.000004
  159  O  9  Y     .000024    .000255    .000000    .000221   -.004281
  160  O  9  Z     .000024   -.000072    .000000    .000206    .142863
  161  O  9  X     .000000    .000000   -.001782    .000000   -.000001
  162  O  9  Y    -.000433   -.001271    .000000   -.001205   -.001371
  163  O  9  Z    -.001287   -.000891    .000000    .000838    .037823
  164  O  9 XX     .000095   -.000012    .000000    .000001   -.008226
  165  O  9 YY     .000098   -.000010    .000000    .000000   -.008180
  166  O  9 ZZ    -.000193    .000022    .000000    .000000    .016406
  167  O  9 XY     .000000    .000000   -.000002    .000000    .000000
  168  O  9 XZ     .000000    .000000   -.000002    .000000   -.000001
  169  O  9 YZ     .000005   -.000018    .000000    .000008   -.000851
  170  C 10  S    -.010490   -.000058    .000000   -.000029   -.004487
  171  C 10  S    -.019103   -.000263    .000000   -.000227   -.009451
  172  C 10  S     .073818   -.010466   -.000002   -.010680   -.003129
  173  C 10  X     .000000    .000000   -.000033    .000000    .000000
  174  C 10  Y    -.003893   -.001586    .000000   -.001713    .011616
  175  C 10  Z     .000130    .000094    .000000   -.000001   -.001286
  176  C 10  X     .000000   -.000001    .004686    .000000    .000000
  177  C 10  Y     .061804   -.004471   -.000001   -.005391   -.003885
  178  C 10  Z    -.000162   -.003216   -.000001    .003310   -.001352
  179  C 10 XX    -.000741   -.000226    .000000   -.000162    .000945
  180  C 10 YY     .001576    .000457    .000000    .000328   -.001919
  181  C 10 ZZ    -.000835   -.000231    .000000   -.000166    .000975
  182  C 10 XY     .000000    .000000    .000541    .000000    .000000
  183  C 10 XZ     .000000    .000000    .000021    .000000    .000000
  184  C 10 YZ     .000037   -.000324    .000000    .000386   -.001272
  185  O 11  S    -.001832   -.000205    .000000   -.000063   -.008894
  186  O 11  S    -.003217   -.000356    .000000   -.000103   -.017252
  187  O 11  S     .017766    .000780    .000000   -.000003   -.021582
  188  O 11  X     .000000    .000000    .000348    .000000    .000000
  189  O 11  Y     .000012    .000075    .000000    .000202   -.010147
  190  O 11  Z     .000026   -.000249    .000000    .000230    .000100
  191  O 11  X     .000000    .000000   -.001786    .000000    .000000
  192  O 11  Y    -.001361    .000913    .000000    .000806   -.002942
  193  O 11  Z    -.000439    .001236    .000000   -.001245    .000407
  194  O 11 XX     .000097    .000013    .000000    .000001    .000595
  195  O 11 YY    -.000197   -.000024    .000000   -.000001   -.001200
  196  O 11 ZZ     .000101    .000011    .000000    .000000    .000605
  197  O 11 XY     .000000    .000000   -.000002    .000000    .000000
  198  O 11 XZ     .000000    .000000   -.000002    .000000    .000000
  199  O 11 YZ     .000005    .000019    .000000    .000007   -.000161
  200  C 12  S    -.010490    .000058    .000000    .000029    .005488
  201  C 12  S    -.019103    .000263    .000000    .000227    .011570
  202  C 12  S     .073818    .010466    .000002    .010680    .004509
  203  C 12  X     .000000    .000000   -.000033    .000000    .000000
  204  C 12  Y     .003893   -.001586    .000000   -.001713    .014309
  205  C 12  Z    -.000130    .000094    .000000   -.000001   -.001371
  206  C 12  X     .000000   -.000001    .004686    .000000    .000000
  207  C 12  Y    -.061803   -.004471   -.000001   -.005391   -.004833
  208  C 12  Z     .000161   -.003216   -.000001    .003310   -.001318
  209  C 12 XX    -.000741    .000226    .000000    .000162   -.001206
  210  C 12 YY     .001576   -.000457    .000000   -.000328    .002423
  211  C 12 ZZ    -.000835    .000231    .000000    .000166   -.001216
  212  C 12 XY     .000000    .000000   -.000541    .000000    .000000
  213  C 12 XZ     .000000    .000000   -.000021    .000000    .000000
  214  C 12 YZ     .000037    .000324    .000000   -.000386    .001245
  215  O 13  S    -.001832    .000205    .000000    .000063    .010948
  216  O 13  S    -.003217    .000356    .000000    .000103    .021234
  217  O 13  S     .017766   -.000780    .000000    .000003    .026373
  218  O 13  X     .000000    .000000    .000348    .000000    .000000
  219  O 13  Y    -.000012    .000075    .000000    .000202   -.012471
  220  O 13  Z    -.000026   -.000249    .000000    .000230    .000171
  221  O 13  X     .000000    .000000   -.001786    .000000    .000000
  222  O 13  Y     .001361    .000913    .000000    .000806   -.003526
  223  O 13  Z     .000439    .001236    .000000   -.001245    .000421
  224  O 13 XX     .000097   -.000013    .000000   -.000001   -.000727
  225  O 13 YY    -.000197    .000024    .000000    .000001    .001464
  226  O 13 ZZ     .000101   -.000011    .000000    .000000   -.000737
  227  O 13 XY     .000000    .000000    .000002    .000000    .000000
  228  O 13 XZ     .000000    .000000    .000002    .000000    .000000
  229  O 13 YZ     .000005   -.000019    .000000   -.000007    .000147

                      6          7          8          9         10
                   -1.4950    -1.4949    -1.4948    -1.4931    -1.4930
                     A          A          A          A          A   
    1  FE 1  S    -.003393    .000000   -.000626   -.000084   -.002279
    2  FE 1  S    -.010775   -.000001   -.001988   -.000267   -.007225
    3  FE 1  S    -.051410   -.000003   -.009480   -.001271   -.034372
    4  FE 1  S    -.134410   -.000008   -.024603   -.003230   -.087356
    5  FE 1  S     .020446    .000001    .003648    .000443    .011994
    6  FE 1  S     .027087    .000002    .004970    .000657    .017783
    7  FE 1  X     .000000    .000000    .000000    .002202   -.000082
    8  FE 1  Y     .000002   -.002073    .000000    .000000    .000000
    9  FE 1  Z    -.000031   -.000211    .000001    .000000    .000000
   10  FE 1  X     .000002    .000000    .000000    .027269   -.001012
   11  FE 1  Y     .000025   -.025792    .000002    .000000    .000000
   12  FE 1  Z    -.000380   -.002531    .000007    .000000    .000000
   13  FE 1  X     .000018   -.000009    .000003    .206069   -.007653
   14  FE 1  Y     .000116   -.208442    .000017    .000001   -.000001
   15  FE 1  Z    -.003082   -.026396    .000059    .000002    .000002
   16  FE 1  X    -.000011    .000007   -.000001   -.125175    .004650
   17  FE 1  Y    -.000048    .130681   -.000011   -.000001    .000000
   18  FE 1  Z     .001935    .018323   -.000037   -.000001   -.000002
   19  FE 1  X    -.000002    .000000    .000000   -.017205    .000639
   20  FE 1  Y    -.000028    .015873   -.000001    .000000    .000000
   21  FE 1  Z     .000236    .000722   -.000004    .000000    .000001
   22  FE 1 XX     .002975    .000000    .000549   -.000198   -.005331
   23  FE 1 YY    -.000622    .000000   -.005190    .000099    .002672
   24  FE 1 ZZ    -.002353    .000000    .004641    .000099    .002659
   25  FE 1 XY     .000000    .000000    .000000    .000000    .000000
   26  FE 1 XZ     .000000    .000000    .000000    .000000    .000000
   27  FE 1 YZ     .000217    .000000    .000038   -.000002   -.000045
   28  FE 1 XX     .003526    .000000    .000645   -.000232   -.006243
   29  FE 1 YY    -.000723    .000000   -.006199    .000116    .003127
   30  FE 1 ZZ    -.002803    .000000    .005554    .000116    .003116
   31  FE 1 XY     .000000    .000000    .000000    .000000    .000000
   32  FE 1 XZ     .000000    .000000    .000000    .000000    .000000
   33  FE 1 YZ     .000220    .000000    .000039    .000000    .000007
   34  FE 1 XX     .029255    .000002    .005164   -.001685   -.045288
   35  FE 1 YY    -.005839   -.000005   -.050501    .000844    .022680
   36  FE 1 ZZ    -.023416    .000003    .045336    .000841    .022609
   37  FE 1 XY    -.000001    .000000   -.000001    .000000    .000000
   38  FE 1 XZ    -.000001    .000000    .000001    .000000    .000000
   39  FE 1 YZ    -.002032    .000000   -.000407    .000002    .000047
   40  FE 1 XXX    .000000    .000000    .000000    .001677   -.000062
   41  FE 1 YYY    .000002   -.001645    .000000    .000000    .000000
   42  FE 1 ZZZ   -.000024   -.000144    .000000    .000000    .000000
   43  FE 1 XXY   -.000001    .001104    .000000    .000000    .000000
   44  FE 1 XXZ    .000016    .000105    .000000    .000000    .000000
   45  FE 1 YYX    .000000    .000000    .000000   -.001125    .000042
[...]
   52  C  2  S   -2.043366   -.704211   -.570720    .000048   -.000002
   53  C  2  X     .000001   -.000003   -.000001    .041981    .000157
   54  C  2  Y    -.001052    .019773   -.036060   -.000001    .000000
   55  C  2  Z    -.089177    .105916    .071059    .000003    .000000
   56  C  2  X     .000042    .000050    .000010   -.107111   -.001742
   57  C  2  Y     .069753   -.005380    .103236    .000006    .000001
   58  C  2  Z     .104681  -1.311274   -.858027   -.000012    .000003
   59  C  2 XX    -.012487   -.108534   -.074873   -.000001    .000001
   60  C  2 YY     .003026   -.109412   -.073554   -.000001   -.000001
   61  C  2 ZZ     .009460    .217946    .148427    .000002    .000000
   62  C  2 XY     .000004    .000001   -.000001    .000535    .110633
   63  C  2 XZ    -.000009   -.000015   -.000003   -.013176    .003724
   64  C  2 YZ    -.011904   -.023861    .008513   -.000001    .000003
   65  O  3  S    -.348972   -.625289   -.424639    .000001    .000001
   66  O  3  S    -.618908  -1.107861   -.752336    .000002    .000001
   67  O  3  S    1.275279   2.184218   1.488839   -.000012   -.000002
   68  O  3  X     .000003   -.000003   -.000007    .009142   -.000394
   69  O  3  Y     .005158    .001296   -.015783    .000001    .000000
   70  O  3  Z     .088116    .181792    .125635    .000001    .000000
   71  O  3  X    -.000001    .000012    .000018    .007994    .000911
   72  O  3  Y    -.007440    .018792    .012632   -.000002    .000000
   73  O  3  Z    -.460023   -.562280   -.392851    .000006    .000000
   74  O  3 XX     .023633    .063180    .039994   -.000002   -.000004
   75  O  3 YY     .030295    .059813    .044584    .000001    .000005
   76  O  3 ZZ    -.053929   -.122993   -.084578    .000001   -.000001
   77  O  3 XY     .000002   -.000001    .000001   -.001007   -.474114
   78  O  3 XZ     .000003    .000008    .000002    .023217   -.015029
   79  O  3 YZ     .002467    .021196   -.017096    .000000   -.000013
   80  C  4  S     .225610   -.000003    .000007   -.156231   -.000945
   81  C  4  S     .415333   -.000005    .000012   -.278626   -.001693
   82  C  4  S   -2.450206    .000010   -.000056   -.908419   -.002472
   83  C  4  X    -.104943   -.000001   -.000002    .133908    .001599
   84  C  4  Y     .000001    .021529   -.036833   -.000002    .000000
   85  C  4  Z     .000003    .033695    .026024   -.000001    .000000
   86  C  4  X     .143215   -.000032    .000017  -1.590825   -.003594
   87  C  4  Y     .000020   -.027138    .091228    .000016   -.000002
   88  C  4  Z     .000018   -.057315   -.073603    .000016   -.000001
   89  C  4 XX    -.021233    .000003    .000000    .270629    .004160
   90  C  4 YY     .009801    .000001    .000001   -.135296   -.002123
   91  C  4 ZZ     .011432   -.000003   -.000001   -.135333   -.002037
   92  C  4 XY    -.000004   -.018131    .013278   -.000004    .000001
   93  C  4 XZ    -.000005   -.022563   -.005816   -.000004    .000001
   94  C  4 YZ     .011324    .000000    .000000    .000293    .055191
   95  O  5  S    -.375695   -.000011   -.000003   -.755017   -.003549
   96  O  5  S    -.666226   -.000019   -.000005  -1.337569   -.006285
   97  O  5  S    1.434963    .000038    .000011   2.648592    .007652
   98  O  5  X     .080049    .000001    .000002    .223222    .002343
   99  O  5  Y     .000002    .012559   -.008549   -.000002   -.000001
  100  O  5  Z     .000001    .015338    .003391   -.000002    .000000
  101  O  5  X    -.514238   -.000005   -.000007   -.686464   -.002555
  102  O  5  Y    -.000001   -.009239   -.006604    .000007    .000001
  103  O  5  Z     .000000   -.006929    .009298    .000006    .000001
  104  O  5 XX    -.058614   -.000002    .000000   -.150856   -.000260
  105  O  5 YY     .028965    .000003    .000002    .075437    .000319
  106  O  5 ZZ     .029649   -.000001   -.000002    .075419   -.000059
  107  O  5 XY     .000002    .017557   -.020184    .000002   -.000003
  108  O  5 XZ     .000002    .024156    .012201    .000003   -.000003
  109  O  5 YZ     .005734   -.000001    .000000    .000700   -.241583
  110  C  6  S     .225620    .000017    .000002    .156216    .000944
  111  C  6  S     .415352    .000031    .000003    .278599    .001693
  112  C  6  S   -2.450202   -.000193   -.000056    .908516    .002473
  113  C  6  X     .104937    .000003   -.000001    .133909    .001599
  114  C  6  Y    -.000002    .021529   -.036833   -.000002    .000000
  115  C  6  Z     .000000    .033695    .026024   -.000001    .000000
  116  C  6  X    -.143323   -.000044    .000022  -1.590761   -.003592
  117  C  6  Y    -.000020   -.027142    .091234    .000016   -.000001
  118  C  6  Z    -.000025   -.057316   -.073603    .000013   -.000001
  119  C  6 XX    -.021215    .000001    .000006   -.270624   -.004159
  120  C  6 YY     .009793    .000000   -.000004    .135294    .002123
  121  C  6 ZZ     .011423   -.000002   -.000001    .135330    .002036
  122  C  6 XY    -.000005    .018131   -.013277    .000004   -.000001
  123  C  6 XZ    -.000005    .022564    .005817    .000004   -.000001
  124  C  6 YZ     .011324    .000000    .000000   -.000293   -.055183
  125  O  7  S    -.375673   -.000014   -.000018    .755017    .003549
  126  O  7  S    -.666188   -.000024   -.000032   1.337570    .006284
  127  O  7  S    1.434843    .000053    .000064  -2.648588   -.007651
  128  O  7  X    -.080058   -.000007   -.000006    .223222    .002343
  129  O  7  Y    -.000002    .012558   -.008549   -.000002    .000000
  130  O  7  Z    -.000002    .015338    .003391   -.000003    .000000
  131  O  7  X     .514216    .000029    .000019   -.686463   -.002555
  132  O  7  Y     .000001   -.009238   -.006606    .000007    .000001
  133  O  7  Z     .000002   -.006929    .009299    .000007    .000001
  134  O  7 XX    -.058606   -.000003   -.000003    .150852    .000260
  135  O  7 YY     .028961    .000002   -.000001   -.075435   -.000319
  136  O  7 ZZ     .029645    .000001    .000004   -.075417    .000059
  137  O  7 XY     .000002   -.017556    .020183   -.000002    .000003
  138  O  7 XZ     .000002   -.024156   -.012201   -.000003    .000003
  139  O  7 YZ     .005734    .000001    .000000   -.000701    .241547
  140  C  8  S     .199705    .131325    .080637   -.000003    .000000
  141  C  8  S     .368184    .234250    .143526   -.000005   -.000001
  142  C  8  S   -2.043385    .704154    .570688    .000019    .000002
  143  C  8  X     .000001   -.000003   -.000001    .041982    .000157
  144  C  8  Y     .001052    .019773   -.036060   -.000001    .000000
  145  C  8  Z     .089163    .105917    .071059    .000002    .000000
  146  C  8  X    -.000039    .000050    .000010   -.107115   -.001742
  147  C  8  Y    -.069753   -.005382    .103234    .000007   -.000003
  148  C  8  Z    -.104668  -1.311258   -.858003    .000009    .000003
  149  C  8 XX    -.012508    .108526    .074868    .000003   -.000001
  150  C  8 YY     .003006    .109416    .073553    .000005    .000001
  151  C  8 ZZ     .009502   -.217941   -.148421   -.000008    .000000
  152  C  8 XY     .000004    .000000   -.000001   -.000535   -.110636
  153  C  8 XZ    -.000005    .000015    .000003    .013176   -.003724
  154  C  8 YZ    -.011906    .023860   -.008514    .000001   -.000003
  155  O  9  S    -.349012    .625273    .424623    .000008   -.000001
  156  O  9  S    -.618979   1.107832    .752308    .000013   -.000001
  157  O  9  S    1.275349  -2.184160  -1.488784   -.000009    .000003
  158  O  9  X    -.000001   -.000003   -.000007    .009141   -.000394
  159  O  9  Y    -.005157    .001296   -.015784    .000001    .000000
  160  O  9  Z    -.088145    .181787    .125630    .000006    .000000
  161  O  9  X    -.000002    .000012    .000018    .007996    .000911
  162  O  9  Y     .007440    .018793    .012632   -.000002    .000001
  163  O  9  Z     .460051   -.562261   -.392835   -.000005    .000000
  164  O  9 XX     .023635   -.063184   -.039994    .000001    .000004
  165  O  9 YY     .030298   -.059807   -.044581   -.000001   -.000005
  166  O  9 ZZ    -.053933    .122990    .084575    .000000    .000001
  167  O  9 XY     .000002    .000002   -.000002    .001007    .474123
  168  O  9 XZ     .000002   -.000008   -.000002   -.023217    .015029
  169  O  9 YZ     .002467   -.021196    .017097    .000000    .000013
  170  C 10  S     .202042    .091355   -.124222   -.000004   -.000001
  171  C 10  S     .372436    .163068   -.221303   -.000008   -.000001
  172  C 10  S   -2.079884    .440613   -.793940    .000007    .000003
  173  C 10  X     .000001   -.000002    .000000    .042108    .000153
  174  C 10  Y     .090580    .071729   -.106035    .000000    .000000
  175  C 10  Z     .001123    .031878    .026043   -.000001    .000000
  176  C 10  X    -.000032    .000037   -.000009   -.107262   -.001715
  177  C 10  Y    -.108223   -.893700   1.289611    .000027    .000004
  178  C 10  Z    -.070751   -.041753   -.093054    .000005   -.000002
  179  C 10 XX    -.011909    .072522   -.110298    .000001   -.000001
  180  C 10 YY     .006705   -.146330    .219770   -.000003    .000000
  181  C 10 ZZ     .005204    .073808   -.109472    .000002    .000001
  182  C 10 XY    -.000004    .000011   -.000004    .013274   -.003706
  183  C 10 XZ     .000005    .000000    .000000   -.000541   -.109138
  184  C 10 YZ    -.011764    .026149   -.000676    .000001   -.000002
  185  O 11  S    -.351448    .420096   -.628290   -.000003   -.000001
  186  O 11  S    -.623292    .744310  -1.113148   -.000005   -.000001
  187  O 11  S    1.289920  -1.466094   2.200744    .000023    .000003
  188  O 11  X    -.000001    .000002    .000007    .009214   -.000386
  189  O 11  Y    -.087434    .121400   -.184767    .000002    .000000
  190  O 11  Z    -.005226    .007552    .014554    .000001    .000000
  191  O 11  X     .000000   -.000001   -.000018    .007939    .000892
  192  O 11  Y     .464998   -.373930    .575284    .000004    .000000
  193  O 11  Z     .007463    .012050   -.019484   -.000002    .000001
  194  O 11 XX     .023507   -.043581    .060864    .000001    .000005
  195  O 11 YY    -.054357    .082292   -.124706   -.000002    .000000
  196  O 11 ZZ     .030849   -.038711    .063842    .000001   -.000005
  197  O 11 XY     .000001   -.000005    .000003   -.023331    .014951
  198  O 11 XZ     .000002    .000001    .000001    .001028    .467941
  199  O 11 YZ     .002458   -.026437   -.008079    .000000    .000008
  200  C 12  S     .202042   -.091359    .124224   -.000003    .000001
  201  C 12  S     .372437   -.163076    .221308   -.000006    .000001
  202  C 12  S   -2.079891   -.440572    .793899    .000062   -.000003
  203  C 12  X     .000001   -.000003    .000001    .042108    .000153
  204  C 12  Y    -.090577    .071732   -.106035    .000001    .000000
  205  C 12  Z    -.001121    .031878    .026043   -.000001    .000000
  206  C 12  X     .000040    .000048   -.000025   -.107262   -.001717
  207  C 12  Y     .108223   -.893740   1.289591    .000009    .000005
  208  C 12  Z     .070746   -.041751   -.093051    .000004    .000001
  209  C 12 XX    -.011913   -.072529    .110293    .000001    .000001
  210  C 12 YY     .006713    .146337   -.219764   -.000002    .000000
  211  C 12 ZZ     .005200   -.073808    .109471    .000001   -.000001
  212  C 12 XY    -.000008   -.000013    .000008   -.013274    .003706
  213  C 12 XZ     .000005    .000000    .000000    .000541    .109138

                            SPIN DENS    ALPHA DENS     BETA DENS
    1  FE          16.0      .0000072        .06114        .06113
    2  C            4.0      .0014261        .03623        .03481
    3  O            6.0      .0003027        .16046        .16016
    4  C            4.0      .0013167        .03617        .03486
    5  O            6.0      .0003086        .16024        .15993
    6  C            4.0      .0013167        .03617        .03486
    7  O            6.0      .0003086        .16024        .15993
    8  C            4.0      .0014261        .03623        .03481
    9  O            6.0      .0003027        .16046        .16016
   10  C            4.0      .0014191        .03623        .03481
   11  O            6.0      .0003037        .16045        .16015
   12  C            4.0      .0014191        .03623        .03481
   13  O            6.0      .0003037        .16045        .16015

          ---------------------
          ELECTROSTATIC MOMENTS
          ---------------------

 POINT   1           X           Y           Z (BOHR)    CHARGE
                  .000000     .000000     .000000        2.00 (A.U.)
         DX          DY          DZ         /D/  (DEBYE)
     -.000032     .000000    -.000006     .000032
 ...... END OF PROPERTY EVALUATION ......
 CPU     0: STEP CPU TIME=      .95 TOTAL CPU TIME=      328.7 (    5.5 MIN)
 TOTAL WALL CLOCK TIME=      329.0 SECONDS, CPU UTILIZATION IS  99.92%
 760389  WORDS OF DYNAMIC MEMORY USED
 EXECUTION OF GAMESS TERMINATED NORMALLY Fri Nov 18 23:10:53 2016
 DDI: 263624 bytes (0.3 MB / 0 MWords) used by master data server.

 ----------------------------------------
 CPU timing information for all processes
 ========================================
 0: 328.873 + 0.00 = 328.873
 1: 328.873 + 0.00 = 328.873
 2: 328.873 + 0.00 = 328.873
 3: 328.873 + 0.00 = 328.873
 4: 328.873 + 0.00 = 328.873
 5: 328.873 + 0.00 = 328.873
 6: 328.873 + 0.00 = 328.873
 7: 328.873 + 0.00 = 328.873
 8: 328.875 + 0.00 = 328.875
 9: 328.875 + 0.00 = 328.875
 10: 328.875 + 0.00 = 328.875
 11: 328.875 + 0.00 = 328.875
 12: 328.875 + 0.00 = 328.875
 13: 328.875 + 0.00 = 328.875
 14: 328.875 + 0.00 = 328.875
 15: 328.875 + 0.00 = 328.875
 16: 328.873 + 0.00 = 328.873
 17: 328.873 + 0.00 = 328.873
 18: 328.873 + 0.00 = 328.873
 19: 328.873 + 0.00 = 328.873
 20: 328.873 + 0.00 = 328.873
 21: 328.873 + 0.00 = 328.873
 22: 328.873 + 0.00 = 328.873
 23: 328.873 + 0.00 = 328.873
 24: 328.873 + 0.00 = 328.873
 25: 328.873 + 0.00 = 328.873
 26: 328.873 + 0.00 = 328.873
 27: 328.873 + 0.00 = 328.873
 28: 328.873 + 0.00 = 328.873
 29: 328.873 + 0.00 = 328.873
 30: 328.873 + 0.00 = 328.873
 31: 328.873 + 0.00 = 328.873
 32: 328.873 + 0.00 = 328.873
 33: 328.873 + 0.00 = 328.873
 34: 328.873 + 0.00 = 328.873
 35: 328.873 + 0.00 = 328.873
 36: 328.873 + 0.00 = 328.873
 37: 328.873 + 0.00 = 328.873
 38: 328.873 + 0.00 = 328.873
 39: 328.873 + 0.00 = 328.873
 40: 328.875 + 0.00 = 328.875
 41: 328.875 + 0.00 = 328.875
 42: 328.875 + 0.00 = 328.875
 43: 328.875 + 0.00 = 328.875
 44: 328.875 + 0.00 = 328.875
 45: 328.875 + 0.00 = 328.875
 46: 328.875 + 0.00 = 328.875
 47: 328.875 + 0.00 = 328.875
 48: 328.873 + 0.00 = 328.873
 49: 328.873 + 0.00 = 328.873
 50: 328.873 + 0.00 = 328.873
 51: 328.873 + 0.00 = 328.873
 52: 328.873 + 0.00 = 328.873
 53: 328.873 + 0.00 = 328.873
 54: 328.873 + 0.00 = 328.873
 55: 328.873 + 0.00 = 328.873
 56: 328.872 + 0.00 = 328.872
 57: 328.872 + 0.00 = 328.872
 58: 328.872 + 0.00 = 328.872
 59: 328.872 + 0.00 = 328.872
 60: 328.872 + 0.00 = 328.872
 61: 328.872 + 0.00 = 328.872
 62: 328.872 + 0.00 = 328.872
 63: 328.872 + 0.00 = 328.872
 64: 328.873 + 0.00 = 328.873
 65: 328.873 + 0.00 = 328.873
 66: 328.873 + 0.00 = 328.873
 67: 328.873 + 0.00 = 328.873
 68: 328.873 + 0.00 = 328.873
 69: 328.873 + 0.00 = 328.873
 70: 328.873 + 0.00 = 328.873
 71: 328.873 + 0.00 = 328.873
 72: 328.873 + 0.00 = 328.873
 73: 328.873 + 0.00 = 328.873
 74: 328.873 + 0.00 = 328.873
 75: 328.873 + 0.00 = 328.873
 76: 328.873 + 0.00 = 328.873
 77: 328.873 + 0.00 = 328.873
 78: 328.873 + 0.00 = 328.873
 79: 328.873 + 0.00 = 328.873
 80: 328.874 + 0.00 = 328.874
 81: 328.874 + 0.00 = 328.874
 82: 328.874 + 0.00 = 328.874
 83: 328.874 + 0.00 = 328.874
 84: 328.874 + 0.00 = 328.874
 85: 328.874 + 0.00 = 328.874
 86: 328.874 + 0.00 = 328.874
 87: 328.874 + 0.00 = 328.874
 88: 328.873 + 0.00 = 328.873
 89: 328.873 + 0.00 = 328.873
 90: 328.873 + 0.00 = 328.873
 91: 328.873 + 0.00 = 328.873
 92: 328.873 + 0.00 = 328.873
 93: 328.873 + 0.00 = 328.873
 94: 328.873 + 0.00 = 328.873
 95: 328.873 + 0.00 = 328.873
 96: 328.875 + 0.00 = 328.875
 97: 328.875 + 0.00 = 328.875
 98: 328.875 + 0.00 = 328.875
 99: 328.875 + 0.00 = 328.875
 100: 328.875 + 0.00 = 328.875
 101: 328.875 + 0.00 = 328.875
 102: 328.875 + 0.00 = 328.875
 103: 328.875 + 0.00 = 328.875
 104: 328.873 + 0.00 = 328.873
 105: 328.873 + 0.00 = 328.873
 106: 328.873 + 0.00 = 328.873
 107: 328.873 + 0.00 = 328.873
 108: 328.873 + 0.00 = 328.873
 109: 328.873 + 0.00 = 328.873
 110: 328.873 + 0.00 = 328.873
 111: 328.873 + 0.00 = 328.873
 112: 328.875 + 0.00 = 328.875
 113: 328.875 + 0.00 = 328.875
 114: 328.875 + 0.00 = 328.875
 115: 328.875 + 0.00 = 328.875
 116: 328.875 + 0.00 = 328.875
 117: 328.875 + 0.00 = 328.875
 118: 328.875 + 0.00 = 328.875
 119: 328.875 + 0.00 = 328.875
 120: 328.873 + 0.00 = 328.873
 121: 328.873 + 0.00 = 328.873
 122: 328.873 + 0.00 = 328.873
 123: 328.873 + 0.00 = 328.873
 124: 328.873 + 0.00 = 328.873
 125: 328.873 + 0.00 = 328.873
 126: 328.873 + 0.00 = 328.873
 127: 328.873 + 0.00 = 328.873
 128: 328.873 + 0.00 = 328.873
 129: 328.872 + 0.00 = 328.872
 130: 328.872 + 0.00 = 328.872
 131: 328.872 + 0.00 = 328.872
 132: 328.872 + 0.00 = 328.872
 133: 328.872 + 0.00 = 328.872
 134: 328.872 + 0.00 = 328.872
 135: 328.872 + 0.00 = 328.872
 136: 328.873 + 0.00 = 328.873
 137: 328.873 + 0.00 = 328.873
 138: 328.873 + 0.00 = 328.873
 139: 328.873 + 0.00 = 328.873
 140: 328.873 + 0.00 = 328.873
 141: 328.873 + 0.00 = 328.873
 142: 328.873 + 0.00 = 328.873
 143: 328.873 + 0.00 = 328.873
 144: 328.873 + 0.00 = 328.873
 145: 328.873 + 0.00 = 328.873
 146: 328.873 + 0.00 = 328.873
 147: 328.873 + 0.00 = 328.873
 148: 328.873 + 0.00 = 328.873
 149: 328.873 + 0.00 = 328.873
 150: 328.873 + 0.00 = 328.873
 151: 328.873 + 0.00 = 328.873
 152: 328.872 + 0.00 = 328.872
 153: 328.872 + 0.00 = 328.872
 154: 328.872 + 0.00 = 328.872
 155: 328.872 + 0.00 = 328.872
 156: 328.872 + 0.00 = 328.872
 157: 328.872 + 0.00 = 328.872
 158: 328.872 + 0.00 = 328.872
 159: 328.872 + 0.00 = 328.872
 160: 328.874 + 0.00 = 328.874
 161: 328.874 + 0.00 = 328.874
 162: 328.874 + 0.00 = 328.874
 163: 328.874 + 0.00 = 328.874
 164: 328.874 + 0.00 = 328.874
 165: 328.874 + 0.00 = 328.874
 166: 328.874 + 0.00 = 328.874
 167: 328.874 + 0.00 = 328.874
 168: 328.874 + 0.00 = 328.874
 169: 328.874 + 0.00 = 328.874
 170: 328.874 + 0.00 = 328.874
 171: 328.874 + 0.00 = 328.874
 172: 328.874 + 0.00 = 328.874
 173: 328.874 + 0.00 = 328.874
 174: 328.874 + 0.00 = 328.874
 175: 328.874 + 0.00 = 328.874
 176: 328.873 + 0.00 = 328.873
 177: 328.873 + 0.00 = 328.873
 178: 328.873 + 0.00 = 328.873
 179: 328.873 + 0.00 = 328.873
 180: 328.873 + 0.00 = 328.873
 181: 328.873 + 0.00 = 328.873
 182: 328.873 + 0.00 = 328.873
 183: 328.873 + 0.00 = 328.873
 184: 328.874 + 0.00 = 328.874
 185: 328.874 + 0.00 = 328.874
 186: 328.874 + 0.00 = 328.874
 187: 328.874 + 0.00 = 328.874
 188: 328.874 + 0.00 = 328.874
 189: 328.874 + 0.00 = 328.874
 190: 328.874 + 0.00 = 328.874
 191: 328.874 + 0.00 = 328.874
 192: 328.872 + 0.00 = 328.872
 193: 328.872 + 0.00 = 328.872
 194: 328.872 + 0.00 = 328.872
 195: 328.872 + 0.00 = 328.872
 196: 328.872 + 0.00 = 328.872
 197: 328.872 + 0.00 = 328.872
 198: 328.872 + 0.00 = 328.872
 199: 328.872 + 0.00 = 328.872
 200: 328.872 + 0.00 = 328.872
 201: 328.872 + 0.00 = 328.872
 202: 328.872 + 0.00 = 328.872
 203: 328.872 + 0.00 = 328.872
 204: 328.872 + 0.00 = 328.872
 205: 328.872 + 0.00 = 328.872
 206: 328.872 + 0.00 = 328.872
 207: 328.872 + 0.00 = 328.872
 208: 328.874 + 0.00 = 328.874
 209: 328.874 + 0.00 = 328.874
 210: 328.874 + 0.00 = 328.874
 211: 328.874 + 0.00 = 328.874
 212: 328.874 + 0.00 = 328.874
 213: 328.874 + 0.00 = 328.874
 214: 328.874 + 0.00 = 328.874
 215: 328.874 + 0.00 = 328.874
 216: 328.873 + 0.00 = 328.873
 217: 328.873 + 0.00 = 328.873
 218: 328.873 + 0.00 = 328.873
