nodefile=
kid090.nics.utk.edu
kid090.nics.utk.edu
kid090.nics.utk.edu
kid090.nics.utk.edu
kid090.nics.utk.edu
kid090.nics.utk.edu
kid090.nics.utk.edu
kid090.nics.utk.edu
kid090.nics.utk.edu
kid090.nics.utk.edu
kid090.nics.utk.edu
kid090.nics.utk.edu
kid085.nics.utk.edu
kid085.nics.utk.edu
kid085.nics.utk.edu
kid085.nics.utk.edu
kid085.nics.utk.edu
kid085.nics.utk.edu
kid085.nics.utk.edu
kid085.nics.utk.edu
kid085.nics.utk.edu
kid085.nics.utk.edu
kid085.nics.utk.edu
kid085.nics.utk.edu
=end nodefile

     Program PWSCF v.4.2        starts on 20Jul2011 at 15:12:45 

     This program is part of the open-source Quantum ESPRESSO suite
     for quantum simulation of materials; please acknowledge
         "P. Giannozzi et al., J. Phys.:Condens. Matter 21 395502 (2009);
          URL http://www.quantum-espresso.org", 
     in publications or presentations arising from this work. More details at
     http://www.quantum-espresso.org/wiki/index.php/Citing_Quantum-ESPRESSO

     Parallel version (MPI), running on    24 processors
     R & G space division:  proc/pool =   24

     Current dimensions of program PWSCF are:
     Max number of different atomic species (ntypx) = 10
     Max number of k-points (npk) =  40000
     Max angular momentum in pseudopotentials (lmaxx) =  3
     Waiting for input...
     file C.BFD.1s2p.upf: wavefunction(s)  0s 0p renormalized

     Subspace diagonalization in iterative solution of the eigenvalue problem:
     Too few electrons for parallel  algorithm: we need # of bands >= SQRT(nproc)
     a serial algorithm will be used


     Planes per process (thick) : nr3 =  81 npp =    4 ncplane =   900
 
     Proc/  planes cols     G    planes cols    G      columns  G
     Pool       (dense grid)       (smooth grid)      (wavefct grid)
        1     4     25     1341    4     25     1341      8      248
        2     4     25     1341    4     25     1341      8      248
        3     4     24     1328    4     24     1328      8      248
        4     4     24     1328    4     24     1328      8      248
        5     4     24     1328    4     24     1328      8      248
        6     4     24     1328    4     24     1328      8      248
        7     4     25     1341    4     25     1341      8      248
        8     4     25     1341    4     25     1341      8      248
        9     4     25     1331    4     25     1331      8      248
       10     3     25     1331    3     25     1331      8      248
       11     3     25     1331    3     25     1331      8      248
       12     3     25     1331    3     25     1331      8      248
       13     3     25     1331    3     25     1331      8      248
       14     3     25     1331    3     25     1331      8      244
       15     3     25     1331    3     25     1331      9      249
       16     3     25     1331    3     25     1331      9      249
       17     3     25     1333    3     25     1333      8      244
       18     3     25     1333    3     25     1333      9      249
       19     3     24     1326    3     24     1326      9      249
       20     3     25     1331    3     25     1331      9      249
       21     3     25     1331    3     25     1331      9      249
       22     3     25     1339    3     25     1339      9      249
       23     3     25     1339    3     25     1339      8      242
       24     3     25     1339    3     25     1339      8      246
     tot     81    595    31995   81    595    31995    199     5943
 


     bravais-lattice index     =            4
     lattice parameter (a_0)   =       4.6510  a.u.
     unit-cell volume          =     237.4694 (a.u.)^3
     number of atoms/cell      =            4
     number of atomic types    =            1
     number of electrons       =        16.00
     number of Kohn-Sham states=           16
     kinetic-energy cutoff     =     100.0000  Ry
     charge density cutoff     =     400.0000  Ry
     convergence threshold     =      1.0E-06
     mixing beta               =       0.7000
     number of iterations used =            8  plain     mixing
     Exchange-correlation      =  SLA  PZ   NOGX NOGC (1100)
     EXX-fraction              =        0.00

     celldm(1)=   4.650994  celldm(2)=   0.000000  celldm(3)=   2.725459
     celldm(4)=   0.000000  celldm(5)=   0.000000  celldm(6)=   0.000000

     crystal axes: (cart. coord. in units of a_0)
               a(1) = (  1.000000  0.000000  0.000000 )  
               a(2) = ( -0.500000  0.866025  0.000000 )  
               a(3) = (  0.000000  0.000000  2.725459 )  

     reciprocal axes: (cart. coord. in units 2 pi/a_0)
               b(1) = (  1.000000  0.577350  0.000000 )  
               b(2) = (  0.000000  1.154701  0.000000 )  
               b(3) = (  0.000000  0.000000  0.366911 )  


     PseudoPot. # 1 for C  read from file C.BFD.1s2p.upf
     Pseudo is Norm-conserving, Zval =  4.0
     Generated by new atomic code, or converted to UPF format
     Using radial grid of 2000 points,  1 beta functions with: 
                l(1) =   0

     atomic species   valence    mass     pseudopotential
        C              4.00    12.01100     C ( 1.00)

     No symmetry found

   Cartesian axes

     site n.     atom                  positions (a_0 units)
         1           C   tau(  1) = (   0.0000000   0.0000000   0.0000000  )
         2           C   tau(  2) = (   0.0000000   0.5773503   0.0000000  )
         3           C   tau(  3) = (   0.0000000   0.0000000   1.3627296  )
         4           C   tau(  4) = (   0.5000000   0.2886751   1.3627296  )

     number of k points=  2304  gaussian broad. (Ry)=  0.0100     ngauss =  -1

     Number of k-points >= 100: set verbosity='high' to print them.

     G cutoff =  219.1754  (  31995 G-vectors)     FFT grid: ( 30, 30, 81)

     Largest allocated arrays     est. size (Mb)     dimensions
        Kohn-Sham Wavefunctions         0.05 Mb     (    187,  16)
        NL pseudopotentials             0.01 Mb     (    187,   4)
        Each V/rho on FFT grid          0.05 Mb     (   3600)
        Each G-vector array             0.01 Mb     (   1341)
        G-vector shells                 0.00 Mb     (    581)
     Largest temporary arrays     est. size (Mb)     dimensions
        Auxiliary wavefunctions         0.18 Mb     (    187,  64)
        Each subspace H/S matrix        0.06 Mb     (     64,  64)
        Each <psi_i|beta_j> matrix      0.00 Mb     (      4,  16)
        Arrays for rho mixing           0.44 Mb     (   3600,   8)

     Initial potential from superposition of free atoms

     starting charge    1.27323, renormalised to   16.00000
     Starting wfc are   16 atomic wfcs

     total cpu time spent up to now is     26.17 secs

     Self-consistent Calculation

     iteration #  1     ecut=   100.00 Ry     beta=0.70
     Davidson diagonalization with overlap
     ethr =  1.00E-02,  avg # of iterations =  4.1

     total cpu time spent up to now is    130.88 secs

     total energy              =     -45.43567251 Ry
     Harris-Foulkes estimate   =     -45.69328808 Ry
     estimated scf accuracy    <       0.41174364 Ry

     iteration #  2     ecut=   100.00 Ry     beta=0.70
     Davidson diagonalization with overlap
     ethr =  2.57E-03,  avg # of iterations =  2.5

     total cpu time spent up to now is    201.05 secs

     total energy              =     -45.50392937 Ry
     Harris-Foulkes estimate   =     -45.50538299 Ry
     estimated scf accuracy    <       0.00509574 Ry

     iteration #  3     ecut=   100.00 Ry     beta=0.70
     Davidson diagonalization with overlap
     ethr =  3.18E-05,  avg # of iterations =  3.5

     total cpu time spent up to now is    284.46 secs

     total energy              =     -45.50451763 Ry
     Harris-Foulkes estimate   =     -45.50456270 Ry
     estimated scf accuracy    <       0.00030576 Ry

     iteration #  4     ecut=   100.00 Ry     beta=0.70
     Davidson diagonalization with overlap
     ethr =  1.91E-06,  avg # of iterations =  2.6

     total cpu time spent up to now is    350.41 secs

     End of self-consistent calculation

          k = 0.0000 0.0000 0.0000 (  4019 PWs)   bands (ev):

   -12.6323 -12.3105  -1.7966   0.2883   3.8929   3.8929   3.9122   3.9122
    10.6253  15.2359  15.2359  15.2904  15.2904  17.0521  18.4610  18.6853

          k = 0.0000 0.0000 0.0917 (  4048 PWs)   bands (ev):

   -12.5879 -12.3607  -1.5392  -0.0825   3.8947   3.8947   3.9087   3.9087
    11.3959  15.2438  15.2438  15.2818  15.2818  15.7066  18.4828  18.6326

          k = 0.0000 0.0000-0.1835 (  4036 PWs)   bands (ev):

   -12.4773 -12.4772  -0.8635  -0.8635   3.9023   3.9023   3.9024   3.9024
    13.3398  13.3398  15.2621  15.2621  15.2621  15.2621  18.5479  18.5479

          k = 0.0000 0.0000-0.0917 (  4048 PWs)   bands (ev):

   -12.5879 -12.3607  -1.5392  -0.0825   3.8947   3.8947   3.9087   3.9087
    11.3959  15.2438  15.2438  15.2818  15.2818  15.7066  18.4828  18.6326

          k = 0.0000 0.0481 0.0000 (  4025 PWs)   bands (ev):

   -12.5912 -12.2704  -1.7459   0.3363   3.7195   3.7440   3.7994   3.8229
    10.6757  15.2488  15.3120  15.4180  15.4721  17.0899  18.3063  18.5404

          k = 0.0000 0.0481 0.0917 (  4036 PWs)   bands (ev):

   -12.5470 -12.3204  -1.4885  -0.0339   3.7232   3.7406   3.8028   3.8193
    11.4450  15.2525  15.3026  15.4251  15.4639  15.7548  18.3326  18.4941

          k = 0.0000 0.0481-0.1835 (  4038 PWs)   bands (ev):

   -12.4366 -12.4366  -0.8139  -0.8139   3.7312   3.7313   3.8111   3.8112
    13.3849  13.3849  15.2814  15.2815  15.4444  15.4444  18.4053  18.4053

          k = 0.0000 0.0481-0.0917 (  4036 PWs)   bands (ev):

   -12.5470 -12.3204  -1.4885  -0.0339   3.7232   3.7406   3.8028   3.8193
    11.4450  15.2525  15.3026  15.4251  15.4639  15.7548  18.3326  18.4941

          k = 0.0000 0.0962 0.0000 (  4025 PWs)   bands (ev):

   -12.4683 -12.1499  -1.5933   0.4790   3.2299   3.2645   3.5421   3.5728
    10.8273  15.2583  15.3454  15.9430  15.9975  17.2011  17.8582  18.1232

          k = 0.0000 0.0962 0.0917 (  4045 PWs)   bands (ev):

   -12.4244 -12.1995  -1.3370   0.1105   3.2347   3.2599   3.5464   3.5680
    11.5924  15.2558  15.3328  15.8916  15.9500  15.9888  17.8905  18.0779

          k = 0.0000 0.0962-0.1835 (  4030 PWs)   bands (ev):

   -12.3148 -12.3148  -0.6652  -0.6652   3.2468   3.2469   3.5576   3.5577
    13.5200  13.5200  15.3083  15.3083  15.9694  15.9695  17.9813  17.9813

          k = 0.0000 0.0962-0.0917 (  4045 PWs)   bands (ev):

   -12.4244 -12.1995  -1.3370   0.1105   3.2347   3.2599   3.5464   3.5680
    11.5924  15.2558  15.3328  15.8916  15.9500  15.9888  17.8905  18.0779

          k = 0.0000 0.1443 0.0000 (  4023 PWs)   bands (ev):

   -12.2636 -11.9495  -1.3396   0.7154   2.4879   2.5383   3.1682   3.2056
    11.0803  15.2098  15.3387  16.7621  16.8160  17.1206  17.3607  17.5249

          k = 0.0000 0.1443 0.0917 (  4035 PWs)   bands (ev):

   -12.2203 -11.9984  -1.0851   0.3508   2.4954   2.5307   3.1734   3.2000
    11.8382  15.2090  15.3190  16.1002  16.7693  16.8075  17.1939  17.4273

          k = 0.0000 0.1443-0.1835 (  4016 PWs)   bands (ev):

   -12.1122 -12.1121  -0.4188  -0.4188   2.5134   2.5135   3.1874   3.1874
    13.7432  13.7432  15.2876  15.2877  16.7879  16.7879  17.3101  17.3101

          k = 0.0000 0.1443-0.0917 (  4035 PWs)   bands (ev):

   -12.2203 -11.9984  -1.0851   0.3508   2.4954   2.5307   3.1734   3.2000
    11.8382  15.2090  15.3190  16.1002  16.7693  16.8075  17.1939  17.4273

          k = 0.0000 0.1925 0.0000 (  4019 PWs)   bands (ev):

   -11.9780 -11.6697  -0.9864   1.0435   1.5701   1.6376   2.7307   2.7741
    11.4348  15.0823  15.2643  16.2041  16.6156  17.6817  17.8155  17.8694

          k = 0.0000 0.1925 0.0917 (  4030 PWs)   bands (ev):

   -11.9354 -11.7176  -0.7345   0.6840   1.5799   1.6273   2.7366   2.7679
    12.1812  15.0881  15.2332  16.2114  16.3784  16.6717  17.8233  17.8595

          k = 0.0000 0.1925-0.1835 (  4028 PWs)   bands (ev):

   -11.8292 -11.8291  -0.0760  -0.0760   1.6033   1.6033   2.7523   2.7524
    14.0460  14.0460  15.1931  15.1932  16.4475  16.4475  17.8412  17.8412

          k = 0.0000 0.1925-0.0917 (  4030 PWs)   bands (ev):

   -11.9354 -11.7176  -0.7345   0.6840   1.5799   1.6273   2.7366   2.7679
    12.1812  15.0881  15.2332  16.2114  16.3784  16.6717  17.8233  17.8595

          k = 0.0000 0.2406 0.0000 (  4029 PWs)   bands (ev):

   -11.6120 -11.3111  -0.5356   0.5414   0.6264   1.4596   2.2746   2.3228
    11.8900  14.8956  15.1084  15.1312  15.6516  18.0052  19.0475  19.0994

          k = 0.0000 0.2406 0.0917 (  4019 PWs)   bands (ev):

   -11.5703 -11.3578  -0.2876   0.5535   0.6143   1.1077   2.2819   2.3162
    12.6175  14.8928  15.0712  15.2186  15.5792  16.8178  19.0551  19.0910

          k = 0.0000 0.2406-0.1835 (  4014 PWs)   bands (ev):

   -11.4666 -11.4665   0.3599   0.3600   0.5850   0.5850   2.2991   2.2992
    14.3808  14.3808  15.0222  15.0223  15.5098  15.5098  19.0725  19.0726

          k = 0.0000 0.2406-0.0917 (  4019 PWs)   bands (ev):

   -11.5703 -11.3578  -0.2876   0.5535   0.6143   1.1077   2.2819   2.3162
    12.6175  14.8928  15.0712  15.2186  15.5792  16.8178  19.0551  19.0910

          k = 0.0000 0.2887 0.0000 (  4039 PWs)   bands (ev):

   -11.1668 -10.8748  -0.5474  -0.4436   0.0092   1.8346   1.8863   1.9576
    12.4444  13.9035  14.5987  14.6823  14.9650  18.3879  20.4075  20.4568

          k = 0.0000 0.2887 0.0917 (  4016 PWs)   bands (ev):

   -11.1263 -10.9200  -0.5319  -0.4589   0.2527   1.6159   1.8426   1.8790
    13.1200  14.0294  14.4476  14.7253  14.9705  17.2435  20.4148  20.4490

          k = 0.0000 0.2887-0.1835 (  4014 PWs)   bands (ev):

   -11.0256 -11.0255  -0.4957  -0.4956   0.8874   0.8874   1.8607   1.8607
    14.1105  14.1105  14.7276  14.7277  15.2554  15.2554  20.4308  20.4309

          k = 0.0000 0.2887-0.0917 (  4016 PWs)   bands (ev):

   -11.1263 -10.9200  -0.5319  -0.4589   0.2527   1.6159   1.8426   1.8790
    13.1200  14.0294  14.4476  14.7253  14.9705  17.2435  20.4148  20.4490

          k = 0.0000 0.3368 0.0000 (  4021 PWs)   bands (ev):

   -10.6439 -10.3624  -1.6578  -1.5359   0.6428   1.4345   1.4890   2.5291
    12.6480  13.0947  13.4969  14.4706  14.7939  18.8165  21.7827  21.8444

          k = 0.0000 0.3368 0.0917 (  4026 PWs)   bands (ev):

   -10.6048 -10.4059  -1.6405  -1.5542   0.8796   1.4425   1.4810   2.2004
    12.7086  13.3337  13.8347  14.5159  14.7848  17.7399  21.8500  21.8832

          k = 0.0000 0.3368-0.1835 (  4004 PWs)   bands (ev):

   -10.5075 -10.5075  -1.5974  -1.5973   1.4617   1.4617   1.4965   1.4965
    12.9961  12.9961  14.5906  14.5906  15.7113  15.7114  21.8663  21.8664

          k = 0.0000 0.3368-0.0917 (  4026 PWs)   bands (ev):

   -10.6048 -10.4059  -1.6405  -1.5542   0.8796   1.4425   1.4810   2.2004
    12.7086  13.3337  13.8347  14.5159  14.7848  17.7399  21.8500  21.8832

          k = 0.0000 0.3849 0.0000 (  4005 PWs)   bands (ev):

   -10.0455  -9.7759  -2.7636  -2.6231   1.0910   1.1464   1.3561   3.1558
    11.3958  12.3817  13.8244  14.2872  14.6437  19.2754  21.6337  23.2996

          k = 0.0000 0.3849 0.0917 (  4019 PWs)   bands (ev):

   -10.0080  -9.8175  -2.7439  -2.6443   1.0990   1.1386   1.5841   2.8461
    11.4961  12.1998  14.2877  14.4231  14.7630  18.2866  21.8946  23.3050

          k = 0.0000 0.3849-0.1835 (  4024 PWs)   bands (ev):

    -9.9148  -9.9147  -2.6950  -2.6950   1.1184   1.1184   2.1760   2.1760
    11.8135  11.8135  14.4274  14.4274  16.3428  16.3428  23.3193  23.3194

          k = 0.0000 0.3849-0.0917 (  4019 PWs)   bands (ev):

   -10.0080  -9.8175  -2.7439  -2.6443   1.0990   1.1386   1.5841   2.8461
    11.4961  12.1998  14.2877  14.4231  14.7630  18.2866  21.8946  23.3050

          k = 0.0000 0.4330 0.0000 (  3987 PWs)   bands (ev):

    -9.3751  -9.1189  -3.8430  -3.6855   0.8146   0.8719   2.1324   3.8027
    10.2119  11.2913  14.0973  14.4245  14.7816  19.7484  20.9669  24.6977

          k = 0.0000 0.4330 0.0917 (  4001 PWs)   bands (ev):

    -9.3393  -9.1582  -3.8209  -3.7095   0.8226   0.8632   2.3484   3.5225
    10.3210  11.0881  14.1563  14.4017  15.4259  18.8607  21.3236  24.7006

          k = 0.0000 0.4330-0.1835 (  4014 PWs)   bands (ev):

    -9.2506  -9.2505  -3.7661  -3.7660   0.8424   0.8424   2.9041   2.9041
    10.6615  10.6615  14.2839  14.2839  17.0594  17.0594  22.0764  22.0764

          k = 0.0000 0.4330-0.0917 (  4001 PWs)   bands (ev):

    -9.3393  -9.1582  -3.8209  -3.7095   0.8226   0.8632   2.3484   3.5225
    10.3210  11.0881  14.1563  14.4017  15.4259  18.8607  21.3236  24.7006

          k = 0.0000 0.4811 0.0000 (  3984 PWs)   bands (ev):

    -8.6392  -8.3987  -4.8769  -4.7044   0.6125   0.6705   2.9378   4.3908
     9.1945  10.2800  13.9860  14.3651  15.6642  19.9807  20.2161  25.9189

          k = 0.0000 0.4811 0.0917 (  3992 PWs)   bands (ev):

    -8.6055  -8.4355  -4.8527  -4.7306   0.6209   0.6614   3.1349   4.1627
     9.2871  10.0604  14.0412  14.3099  16.3022  19.3996  20.4902  22.2642

          k = 0.0000 0.4811-0.1835 (  4006 PWs)   bands (ev):

    -8.5220  -8.5220  -4.7926  -4.7925   0.6405   0.6406   3.6323   3.6323
     9.6152   9.6152  14.1749  14.1749  17.8305  17.8305  21.3813  21.3813

          k = 0.0000 0.4811-0.0917 (  3992 PWs)   bands (ev):

    -8.6055  -8.4355  -4.8527  -4.7306   0.6209   0.6614   3.1349   4.1627
     9.2871  10.0604  14.0412  14.3099  16.3022  19.3996  20.4902  22.2642

          k = 0.0000 0.5292 0.0000 (  3988 PWs)   bands (ev):

    -7.8597  -7.6437  -5.8288  -5.6510   0.4894   0.5477   3.6850   4.7537
     8.5219   9.4512  13.9139  14.3068  16.6719  18.8730  20.6397  22.0475

          k = 0.0000 0.5292 0.0917 (  4002 PWs)   bands (ev):

    -7.8291  -7.6763  -5.8042  -5.6785   0.4975   0.5384   3.8503   4.6173
     8.5576   9.2270  13.9696  14.2485  17.2592  19.2374  20.1988  21.7008

          k = 0.0000 0.5292-0.1835 (  4014 PWs)   bands (ev):

    -7.7537  -7.7536  -5.7428  -5.7427   0.5176   0.5177   4.2462   4.2462
     8.8041   8.8041  14.1070  14.1071  18.6074  18.6075  20.6193  20.6194

          k = 0.0000 0.5292-0.0917 (  4002 PWs)   bands (ev):

    -7.8291  -7.6763  -5.8042  -5.6785   0.4975   0.5384   3.8503   4.6173
     8.5576   9.2270  13.9696  14.2485  17.2592  19.2374  20.1988  21.7008

          k = 0.0000-0.5774 0.0000 (  3972 PWs)   bands (ev):

    -7.2720  -7.1546  -6.3839  -6.2944   0.4482   0.5067   4.0772   4.7972
     8.3319   9.0747  13.8895  14.2864  17.7137  17.7902  20.8619  21.8058

          k = 0.0000-0.5774 0.0917 (  4020 PWs)   bands (ev):

    -7.2515  -7.1676  -6.3777  -6.3136   0.4561   0.4969   4.2119   4.7358
     8.3168   8.8546  13.9453  14.2273  18.2273  18.3032  20.4535  21.3857

          k = 0.0000-0.5774-0.1835 (  4008 PWs)   bands (ev):

    -7.2058  -7.2058  -6.3518  -6.3517   0.4767   0.4768   4.5105   4.5105
     8.4734   8.4734  14.0841  14.0842  19.1030  19.1030  20.1255  20.1255

          k = 0.0000-0.5774-0.0917 (  4020 PWs)   bands (ev):

    -7.2515  -7.1676  -6.3777  -6.3136   0.4561   0.4969   4.2119   4.7358
     8.3168   8.8546  13.9453  14.2273  18.2273  18.3032  20.4535  21.3857

          k = 0.0000-0.5292 0.0000 (  3988 PWs)   bands (ev):

    -7.8597  -7.6437  -5.8288  -5.6510   0.4894   0.5477   3.6850   4.7537
     8.5219   9.4512  13.9139  14.3068  16.6719  18.8730  20.6397  22.0475

          k = 0.0000-0.5292 0.0917 (  4002 PWs)   bands (ev):

    -7.8291  -7.6763  -5.8042  -5.6785   0.4975   0.5384   3.8503   4.6173
     8.5576   9.2270  13.9696  14.2485  17.2592  19.2374  20.1988  21.7008

          k = 0.0000-0.5292-0.1835 (  4014 PWs)   bands (ev):

    -7.7537  -7.7536  -5.7428  -5.7427   0.5176   0.5177   4.2462   4.2462
     8.8041   8.8041  14.1070  14.1071  18.6074  18.6075  20.6193  20.6194

          k = 0.0000-0.5292-0.0917 (  4002 PWs)   bands (ev):

    -7.8291  -7.6763  -5.8042  -5.6785   0.4975   0.5384   3.8503   4.6173
     8.5576   9.2270  13.9696  14.2485  17.2592  19.2374  20.1988  21.7008

          k = 0.0000-0.4811 0.0000 (  3984 PWs)   bands (ev):

    -8.6392  -8.3987  -4.8769  -4.7044   0.6125   0.6705   2.9378   4.3908
     9.1945  10.2800  13.9860  14.3651  15.6642  19.9807  20.2161  25.9189

          k = 0.0000-0.4811 0.0917 (  3992 PWs)   bands (ev):

    -8.6055  -8.4355  -4.8527  -4.7306   0.6209   0.6614   3.1349   4.1627
     9.2871  10.0604  14.0412  14.3099  16.3022  19.3996  20.4902  22.2642

          k = 0.0000-0.4811-0.1835 (  4006 PWs)   bands (ev):

    -8.5220  -8.5220  -4.7926  -4.7925   0.6405   0.6406   3.6323   3.6323
     9.6152   9.6152  14.1749  14.1749  17.8305  17.8305  21.3813  21.3813

          k = 0.0000-0.4811-0.0917 (  3992 PWs)   bands (ev):

    -8.6055  -8.4355  -4.8527  -4.7306   0.6209   0.6614   3.1349   4.1627
     9.2871  10.0604  14.0412  14.3099  16.3022  19.3996  20.4902  22.2642

          k = 0.0000-0.4330 0.0000 (  3987 PWs)   bands (ev):

    -9.3751  -9.1189  -3.8430  -3.6855   0.8146   0.8719   2.1324   3.8027
    10.2119  11.2913  14.0973  14.4245  14.7816  19.7484  20.9669  24.6977

          k = 0.0000-0.4330 0.0917 (  4001 PWs)   bands (ev):

    -9.3393  -9.1582  -3.8209  -3.7095   0.8226   0.8632   2.3484   3.5225
    10.3210  11.0881  14.1563  14.4017  15.4259  18.8607  21.3236  24.7006

          k = 0.0000-0.4330-0.1835 (  4014 PWs)   bands (ev):

    -9.2506  -9.2505  -3.7661  -3.7660   0.8424   0.8424   2.9041   2.9041
    10.6615  10.6615  14.2839  14.2839  17.0594  17.0594  22.0764  22.0764

          k = 0.0000-0.4330-0.0917 (  4001 PWs)   bands (ev):

    -9.3393  -9.1582  -3.8209  -3.7095   0.8226   0.8632   2.3484   3.5225
    10.3210  11.0881  14.1563  14.4017  15.4259  18.8607  21.3236  24.7006

          k = 0.0000-0.3849 0.0000 (  4005 PWs)   bands (ev):

   -10.0455  -9.7759  -2.7636  -2.6231   1.0910   1.1464   1.3561   3.1558
    11.3958  12.3817  13.8244  14.2872  14.6437  19.2754  21.6337  23.2996

          k = 0.0000-0.3849 0.0917 (  4019 PWs)   bands (ev):

   -10.0080  -9.8175  -2.7439  -2.6443   1.0990   1.1386   1.5841   2.8461
    11.4961  12.1998  14.2877  14.4231  14.7630  18.2866  21.8946  23.3050

          k = 0.0000-0.3849-0.1835 (  4024 PWs)   bands (ev):

    -9.9148  -9.9147  -2.6950  -2.6950   1.1184   1.1184   2.1760   2.1760
    11.8135  11.8135  14.4274  14.4274  16.3428  16.3428  23.3193  23.3194

          k = 0.0000-0.3849-0.0917 (  4019 PWs)   bands (ev):

   -10.0080  -9.8175  -2.7439  -2.6443   1.0990   1.1386   1.5841   2.8461
    11.4961  12.1998  14.2877  14.4231  14.7630  18.2866  21.8946  23.3050

          k = 0.0000-0.3368 0.0000 (  4021 PWs)   bands (ev):

   -10.6439 -10.3624  -1.6578  -1.5359   0.6428   1.4345   1.4890   2.5291
    12.6480  13.0947  13.4969  14.4706  14.7939  18.8165  21.7827  21.8444

          k = 0.0000-0.3368 0.0917 (  4026 PWs)   bands (ev):

   -10.6048 -10.4059  -1.6405  -1.5542   0.8796   1.4425   1.4810   2.2004
    12.7086  13.3337  13.8347  14.5159  14.7848  17.7399  21.8500  21.8832

          k = 0.0000-0.3368-0.1835 (  4004 PWs)   bands (ev):

   -10.5075 -10.5075  -1.5974  -1.5973   1.4617   1.4617   1.4965   1.4965
    12.9961  12.9961  14.5906  14.5906  15.7113  15.7114  21.8663  21.8664

          k = 0.0000-0.3368-0.0917 (  4026 PWs)   bands (ev):

   -10.6048 -10.4059  -1.6405  -1.5542   0.8796   1.4425   1.4810   2.2004
    12.7086  13.3337  13.8347  14.5159  14.7848  17.7399  21.8500  21.8832

          k = 0.0000-0.2887 0.0000 (  4039 PWs)   bands (ev):

   -11.1668 -10.8748  -0.5474  -0.4436   0.0092   1.8346   1.8863   1.9576
    12.4444  13.9035  14.5987  14.6823  14.9650  18.3879  20.4075  20.4568

          k = 0.0000-0.2887 0.0917 (  4016 PWs)   bands (ev):

   -11.1263 -10.9200  -0.5319  -0.4589   0.2527   1.6159   1.8426   1.8790
    13.1200  14.0294  14.4476  14.7253  14.9705  17.2435  20.4148  20.4490

          k = 0.0000-0.2887-0.1835 (  4014 PWs)   bands (ev):

   -11.0256 -11.0255  -0.4957  -0.4956   0.8874   0.8874   1.8607   1.8607
    14.1105  14.1105  14.7276  14.7277  15.2554  15.2554  20.4308  20.4309

          k = 0.0000-0.2887-0.0917 (  4016 PWs)   bands (ev):

   -11.1263 -10.9200  -0.5319  -0.4589   0.2527   1.6159   1.8426   1.8790
    13.1200  14.0294  14.4476  14.7253  14.9705  17.2435  20.4148  20.4490

          k = 0.0000-0.2406 0.0000 (  4029 PWs)   bands (ev):

   -11.6120 -11.3111  -0.5356   0.5414   0.6264   1.4596   2.2746   2.3228
    11.8900  14.8956  15.1084  15.1312  15.6516  18.0052  19.0475  19.0994

          k = 0.0000-0.2406 0.0917 (  4019 PWs)   bands (ev):

   -11.5703 -11.3578  -0.2876   0.5535   0.6143   1.1077   2.2819   2.3162
    12.6175  14.8928  15.0712  15.2186  15.5792  16.8178  19.0551  19.0910

          k = 0.0000-0.2406-0.1835 (  4014 PWs)   bands (ev):

   -11.4666 -11.4665   0.3599   0.3600   0.5850   0.5850   2.2991   2.2992
    14.3808  14.3808  15.0222  15.0223  15.5098  15.5098  19.0725  19.0726

          k = 0.0000-0.2406-0.0917 (  4019 PWs)   bands (ev):

   -11.5703 -11.3578  -0.2876   0.5535   0.6143   1.1077   2.2819   2.3162
    12.6175  14.8928  15.0712  15.2186  15.5792  16.8178  19.0551  19.0910

          k = 0.0000-0.1925 0.0000 (  4019 PWs)   bands (ev):

   -11.9780 -11.6697  -0.9864   1.0435   1.5701   1.6376   2.7307   2.7741
    11.4348  15.0823  15.2643  16.2041  16.6156  17.6817  17.8155  17.8694

          k = 0.0000-0.1925 0.0917 (  4030 PWs)   bands (ev):

   -11.9354 -11.7176  -0.7345   0.6840   1.5799   1.6273   2.7366   2.7679
    12.1812  15.0881  15.2332  16.2114  16.3784  16.6717  17.8233  17.8595

          k = 0.0000-0.1925-0.1835 (  4028 PWs)   bands (ev):

   -11.8292 -11.8291  -0.0760  -0.0760   1.6033   1.6033   2.7523   2.7524
    14.0460  14.0460  15.1931  15.1932  16.4475  16.4475  17.8412  17.8412

          k = 0.0000-0.1925-0.0917 (  4030 PWs)   bands (ev):

   -11.9354 -11.7176  -0.7345   0.6840   1.5799   1.6273   2.7366   2.7679
    12.1812  15.0881  15.2332  16.2114  16.3784  16.6717  17.8233  17.8595

          k = 0.0000-0.1443 0.0000 (  4023 PWs)   bands (ev):

   -12.2636 -11.9495  -1.3396   0.7154   2.4879   2.5383   3.1682   3.2056
    11.0803  15.2098  15.3387  16.7621  16.8160  17.1206  17.3607  17.5249

          k = 0.0000-0.1443 0.0917 (  4035 PWs)   bands (ev):

   -12.2203 -11.9984  -1.0851   0.3508   2.4954   2.5307   3.1734   3.2000
    11.8382  15.2090  15.3190  16.1002  16.7693  16.8075  17.1939  17.4273

          k = 0.0000-0.1443-0.1835 (  4016 PWs)   bands (ev):

   -12.1122 -12.1121  -0.4188  -0.4188   2.5134   2.5135   3.1874   3.1874
    13.7432  13.7432  15.2876  15.2877  16.7879  16.7879  17.3101  17.3101

          k = 0.0000-0.1443-0.0917 (  4035 PWs)   bands (ev):

   -12.2203 -11.9984  -1.0851   0.3508   2.4954   2.5307   3.1734   3.2000
    11.8382  15.2090  15.3190  16.1002  16.7693  16.8075  17.1939  17.4273

          k = 0.0000-0.0962 0.0000 (  4025 PWs)   bands (ev):

   -12.4683 -12.1499  -1.5933   0.4790   3.2299   3.2645   3.5421   3.5728
    10.8273  15.2583  15.3454  15.9430  15.9975  17.2011  17.8582  18.1232

          k = 0.0000-0.0962 0.0917 (  4045 PWs)   bands (ev):

   -12.4244 -12.1995  -1.3370   0.1105   3.2347   3.2599   3.5464   3.5680
    11.5924  15.2558  15.3328  15.8916  15.9500  15.9888  17.8905  18.0779

          k = 0.0000-0.0962-0.1835 (  4030 PWs)   bands (ev):

   -12.3148 -12.3148  -0.6652  -0.6652   3.2468   3.2469   3.5576   3.5577
    13.5200  13.5200  15.3083  15.3083  15.9694  15.9695  17.9813  17.9813

          k = 0.0000-0.0962-0.0917 (  4045 PWs)   bands (ev):

   -12.4244 -12.1995  -1.3370   0.1105   3.2347   3.2599   3.5464   3.5680
    11.5924  15.2558  15.3328  15.8916  15.9500  15.9888  17.8905  18.0779

          k = 0.0000-0.0481 0.0000 (  4025 PWs)   bands (ev):

   -12.5912 -12.2704  -1.7459   0.3363   3.7195   3.7440   3.7994   3.8229
    10.6757  15.2488  15.3120  15.4180  15.4721  17.0899  18.3063  18.5404

          k = 0.0000-0.0481 0.0917 (  4036 PWs)   bands (ev):

   -12.5470 -12.3204  -1.4885  -0.0339   3.7232   3.7406   3.8028   3.8193
    11.4450  15.2525  15.3026  15.4251  15.4639  15.7548  18.3326  18.4941

          k = 0.0000-0.0481-0.1835 (  4038 PWs)   bands (ev):

   -12.4366 -12.4366  -0.8139  -0.8139   3.7312   3.7313   3.8111   3.8112
    13.3849  13.3849  15.2814  15.2815  15.4444  15.4444  18.4053  18.4053

          k = 0.0000-0.0481-0.0917 (  4036 PWs)   bands (ev):

   -12.5470 -12.3204  -1.4885  -0.0339   3.7232   3.7406   3.8028   3.8193
    11.4450  15.2525  15.3026  15.4251  15.4639  15.7548  18.3326  18.4941

          k = 0.0417 0.0241 0.0000 (  4025 PWs)   bands (ev):

   -12.5912 -12.2704  -1.7459   0.3363   3.7195   3.7440   3.7994   3.8229
    10.6757  15.2488  15.3120  15.4180  15.4721  17.0899  18.3063  18.5404

          k = 0.0417 0.0241 0.0917 (  4036 PWs)   bands (ev):

   -12.5470 -12.3204  -1.4885  -0.0339   3.7232   3.7406   3.8028   3.8193
    11.4450  15.2525  15.3026  15.4251  15.4639  15.7548  18.3326  18.4941

          k = 0.0417 0.0241-0.1835 (  4038 PWs)   bands (ev):

   -12.4366 -12.4366  -0.8139  -0.8139   3.7312   3.7313   3.8111   3.8112
    13.3849  13.3849  15.2814  15.2815  15.4444  15.4444  18.4053  18.4053

          k = 0.0417 0.0241-0.0917 (  4036 PWs)   bands (ev):

   -12.5470 -12.3204  -1.4885  -0.0339   3.7232   3.7406   3.8028   3.8193
    11.4450  15.2525  15.3026  15.4251  15.4639  15.7548  18.3326  18.4941

          k = 0.0417 0.0722 0.0000 (  4023 PWs)   bands (ev):

   -12.5092 -12.1901  -1.6443   0.4317   3.4018   3.4253   3.6194   3.6402
    10.7768  15.2910  15.3650  15.7391  15.7948  17.1650  18.0060  18.2592

          k = 0.0417 0.0722 0.0917 (  4037 PWs)   bands (ev):

   -12.4652 -12.2398  -1.3875   0.0626   3.4054   3.4222   3.6220   3.6369
    11.5433  15.2880  15.3545  15.7470  15.7859  15.8479  18.0368  18.2147

          k = 0.0417 0.0722-0.1835 (  4038 PWs)   bands (ev):

   -12.3554 -12.3554  -0.7148  -0.7148   3.4136   3.4137   3.6288   3.6289
    13.4751  13.4751  15.3328  15.3329  15.7659  15.7659  18.1214  18.1214

          k = 0.0417 0.0722-0.0917 (  4037 PWs)   bands (ev):

   -12.4652 -12.2398  -1.3875   0.0626   3.4054   3.4222   3.6220   3.6369
    11.5433  15.2880  15.3545  15.7470  15.7859  15.8479  18.0368  18.2147

          k = 0.0417 0.1203 0.0000 (  4021 PWs)   bands (ev):

   -12.3454 -12.0296  -1.4411   0.6212   2.8084   2.8436   3.2813   3.3098
    10.9792  15.3333  15.4339  16.3307  16.3898  17.2897  17.4524  17.7255

          k = 0.0417 0.1203 0.0917 (  4036 PWs)   bands (ev):

   -12.3019 -12.0788  -1.1857   0.2549   2.8137   2.8385   3.2852   3.3051
    11.7401  15.3258  15.4192  16.0230  16.3389  16.3801  17.4713  17.6793

          k = 0.0417 0.1203-0.1835 (  4026 PWs)   bands (ev):

   -12.1932 -12.1931  -0.5172  -0.5172   2.8265   2.8266   3.2947   3.2948
    13.6552  13.6552  15.3935  15.3936  16.3588  16.3589  17.5755  17.5755

          k = 0.0417 0.1203-0.0917 (  4036 PWs)   bands (ev):

   -12.3019 -12.0788  -1.1857   0.2549   2.8137   2.8385   3.2852   3.3051
    11.7401  15.3258  15.4192  16.0230  16.3389  16.3801  17.4713  17.6793

          k = 0.0417 0.1684 0.0000 (  4030 PWs)   bands (ev):

   -12.1003 -11.7895  -1.1376   0.9032   1.9993   2.0528   2.8512   2.8896
    11.2832  15.2905  15.4396  16.6083  16.9668  17.1681  17.2347  17.5594

          k = 0.0417 0.1684 0.0917 (  4025 PWs)   bands (ev):

   -12.0574 -11.8379  -0.8844   0.5417   2.0074   2.0450   2.8568   2.8838
    12.0351  15.2884  15.4157  16.2515  16.6838  16.9433  17.1802  17.2261

          k = 0.0417 0.1684-0.1835 (  4024 PWs)   bands (ev):

   -11.9504 -11.9503  -0.2226  -0.2225   2.0261   2.0261   2.8702   2.8702
    13.9217  13.9217  15.3791  15.3792  16.8092  16.8092  17.2042  17.2043

          k = 0.0417 0.1684-0.0917 (  4025 PWs)   bands (ev):

   -12.0574 -11.8379  -0.8844   0.5417   2.0074   2.0450   2.8568   2.8838
    12.0351  15.2884  15.4157  16.2515  16.6838  16.9433  17.1802  17.2261

          k = 0.0417 0.2165 0.0000 (  4025 PWs)   bands (ev):

   -11.7744 -11.4703  -0.7355   1.0421   1.1150   1.2753   2.3859   2.4319
    11.6885  15.1570  15.3631  15.6089  16.0708  17.8449  18.2013  18.2849

          k = 0.0417 0.2165 0.0917 (  4024 PWs)   bands (ev):

   -11.7324 -11.5175  -0.4856   0.9195   1.0533   1.1042   2.3927   2.4249
    12.4262  15.1567  15.3168  15.6902  15.9940  16.6530  18.2153  18.2734

          k = 0.0417 0.2165-0.1835 (  4020 PWs)   bands (ev):

   -11.6276 -11.6275   0.1673   0.1673   1.0786   1.0787   2.4087   2.4087
    14.2586  14.2586  15.2643  15.2643  15.9075  15.9075  18.2451  18.2451

          k = 0.0417 0.2165-0.0917 (  4024 PWs)   bands (ev):

   -11.7324 -11.5175  -0.4856   0.9195   1.0533   1.1042   2.3927   2.4249
    12.4262  15.1567  15.3168  15.6902  15.9940  16.6530  18.2153  18.2734

          k = 0.0417 0.2646 0.0000 (  4027 PWs)   bands (ev):

   -11.3689 -11.0729  -0.2374  -0.0053   0.0867   1.7333   1.9250   1.9768
    12.1939  14.4698  14.9671  15.0675  15.2255  18.1928  19.3565  19.4850

          k = 0.0417 0.2646 0.0917 (  4018 PWs)   bands (ev):

   -11.3279 -11.1188   0.0032   0.0115   0.0749   1.3869   1.9327   1.9689
    12.9049  14.5490  14.9095  15.0120  15.2540  17.0300  19.3799  19.4693

          k = 0.0417 0.2646-0.1835 (  4016 PWs)   bands (ev):

   -11.2258 -11.2257   0.0404   0.0404   0.6498   0.6499   1.9507   1.9507
    14.4730  14.4730  14.8782  14.8782  15.3014  15.3014  19.4273  19.4273

          k = 0.0417 0.2646-0.0917 (  4018 PWs)   bands (ev):

   -11.3279 -11.1188   0.0032   0.0115   0.0749   1.3869   1.9327   1.9689
    12.9049  14.5490  14.9095  15.0120  15.2540  17.0300  19.3799  19.4693

          k = 0.0417 0.3127 0.0000 (  4026 PWs)   bands (ev):

   -10.8849 -10.5986  -1.0975  -0.9860   0.3522   1.4964   1.5520   2.2693
    12.7975  13.2479  13.9976  14.7574  15.0614  18.5881  20.5056  20.7790

          k = 0.0417 0.3127 0.0917 (  4016 PWs)   bands (ev):

   -10.8451 -10.6428  -1.0811  -1.0025   0.5925   1.5047   1.5435   1.9340
    13.2085  13.6323  13.8636  14.7992  15.0467  17.4885  20.5609  20.7497

          k = 0.0417 0.3127-0.1835 (  4000 PWs)   bands (ev):

   -10.7463 -10.7462  -1.0418  -1.0418   1.2179   1.2180   1.5242   1.5243
    13.5447  13.5447  14.8306  14.8306  15.4808  15.4808  20.6665  20.6665

          k = 0.0417 0.3127-0.0917 (  4016 PWs)   bands (ev):

   -10.8451 -10.6428  -1.0811  -1.0025   0.5925   1.5047   1.5435   1.9340
    13.2085  13.6323  13.8636  14.7992  15.0467  17.4885  20.5609  20.7497

          k = 0.0417 0.3608 0.0000 (  4015 PWs)   bands (ev):

   -10.3242 -10.0491  -2.2004  -2.0704   1.0265   1.1189   1.1773   2.8707
    11.9988  12.8966  13.4945  14.5571  14.8991  19.0165  21.2914  22.1077

          k = 0.0417 0.3608 0.0917 (  4021 PWs)   bands (ev):

   -10.2859 -10.0916  -2.1820  -2.0900   1.1276   1.1684   1.2593   2.5512
    12.0868  12.7332  14.1810  14.6071  14.8941  18.0011  21.4480  22.0226

          k = 0.0417 0.3608-0.1835 (  4014 PWs)   bands (ev):

   -10.1908 -10.1908  -2.1365  -2.1364   1.1479   1.1480   1.8638   1.8638
    12.3812  12.3812  14.6910  14.6910  16.0329  16.0329  21.7658  21.7659

          k = 0.0417 0.3608-0.0917 (  4021 PWs)   bands (ev):

   -10.2859 -10.0916  -2.1820  -2.0900   1.1276   1.1684   1.2593   2.5512
    12.0868  12.7332  14.1810  14.6071  14.8941  18.0011  21.4480  22.0226

          k = 0.0417 0.4090 0.0000 (  3993 PWs)   bands (ev):

    -9.6897  -9.4271  -3.2899  -3.1418   0.8055   0.8655   1.7740   3.5138
    10.7804  11.7990  14.2314  14.4179  14.7738  19.4620  21.2163  23.4024

          k = 0.0417 0.4090 0.0917 (  4012 PWs)   bands (ev):

    -9.6531  -9.4675  -3.2689  -3.1643   0.8142   0.8561   1.9964   3.2174
    10.8871  11.6121  14.4116  14.6173  15.0854  18.5480  21.4929  22.7772

          k = 0.0417 0.4090-0.1835 (  4018 PWs)   bands (ev):

    -9.5622  -9.5622  -3.2175  -3.2175   0.8351   0.8352   2.5711   2.5711
    11.2141  11.2141  14.5389  14.5389  16.7033  16.7033  22.1014  22.1014

          k = 0.0417 0.4090-0.0917 (  4012 PWs)   bands (ev):

    -9.6531  -9.4675  -3.2689  -3.1643   0.8142   0.8561   1.9964   3.2174
    10.8871  11.6121  14.4116  14.6173  15.0854  18.5480  21.4929  22.7772

          k = 0.0417 0.4571 0.0000 (  3993 PWs)   bands (ev):

    -8.9859  -8.7377  -4.3455  -4.1808   0.5641   0.6253   2.5708   4.1463
     9.6689  10.7476  14.2244  14.5910  15.2361  19.9059  20.4711  24.5821

          k = 0.0417 0.4571 0.0917 (  4006 PWs)   bands (ev):

    -8.9511  -8.7758  -4.3224  -4.2058   0.5729   0.6156   2.7783   3.8883
     9.7733  10.5404  14.2807  14.5423  15.8793  19.0935  20.8703  22.3576

          k = 0.0417 0.4571-0.1835 (  4012 PWs)   bands (ev):

    -8.8651  -8.8651  -4.2650  -4.2649   0.5940   0.5941   3.3080   3.3080
    10.1099  10.1099  14.4125  14.4125  17.4394  17.4394  21.6372  21.6372

          k = 0.0417 0.4571-0.0917 (  4006 PWs)   bands (ev):

    -8.9511  -8.7758  -4.3224  -4.2058   0.5729   0.6156   2.7783   3.8883
     9.7733  10.5404  14.2807  14.5423  15.8793  19.0935  20.8703  22.3576

          k = 0.0417 0.5052 0.0000 (  4007 PWs)   bands (ev):

    -8.2239  -7.9940  -5.3438  -5.1665   0.4002   0.4620   3.3649   4.6501
     8.7988   9.8126  14.1307  14.5225  16.1913  19.4422  20.3264  25.5541

          k = 0.0417 0.5052 0.0917 (  3999 PWs)   bands (ev):

    -8.1915  -8.0290  -5.3187  -5.1934   0.4093   0.4527   3.5480   4.4623
     8.8682   9.5944  14.1866  14.4645  16.7941  19.4426  20.1528  21.8085

          k = 0.0417 0.5052-0.1835 (  3996 PWs)   bands (ev):

    -8.1116  -8.1115  -5.2572  -5.2571   0.4309   0.4310   4.0013   4.0013
     9.1620   9.1620  14.3237  14.3237  18.2037  18.2037  20.9469  20.9469

          k = 0.0417 0.5052-0.0917 (  3999 PWs)   bands (ev):

    -8.1915  -8.0290  -5.3187  -5.1934   0.4093   0.4527   3.5480   4.4623
     8.8682   9.5944  14.1866  14.4645  16.7941  19.4426  20.1528  21.8085

          k = 0.0417 0.5533 0.0000 (  3986 PWs)   bands (ev):

    -7.4612  -7.2784  -6.1930  -6.0370   0.3179   0.3798   4.0003   4.8364
     8.3738   9.1585  14.0820  14.4826  17.2336  18.3344  20.6599  21.6186

          k = 0.0417 0.5533 0.0917 (  4003 PWs)   bands (ev):

    -7.4342  -7.3047  -6.1731  -6.0626   0.3269   0.3703   4.1456   4.7515
     8.3738   8.9424  14.1382  14.4228  17.7691  18.7626  20.2746  21.3622

          k = 0.0417 0.5533-0.1835 (  4000 PWs)   bands (ev):

    -7.3691  -7.3690  -6.1206  -6.1205   0.3484   0.3485   4.4779   4.4779
     8.5551   8.5551  14.2780  14.2780  18.8834  18.8834  20.2901  20.2901

          k = 0.0417 0.5533-0.0917 (  4003 PWs)   bands (ev):

    -7.4342  -7.3047  -6.1731  -6.0626   0.3269   0.3703   4.1456   4.7515
     8.3738   8.9424  14.1382  14.4228  17.7691  18.7626  20.2746  21.3622

          k = 0.0417-0.5533 0.0000 (  3986 PWs)   bands (ev):

    -7.4612  -7.2784  -6.1930  -6.0370   0.3179   0.3798   4.0003   4.8364
     8.3738   9.1585  14.0820  14.4826  17.2336  18.3344  20.6599  21.6186

          k = 0.0417-0.5533 0.0917 (  4003 PWs)   bands (ev):

    -7.4342  -7.3047  -6.1731  -6.0626   0.3269   0.3703   4.1456   4.7515
     8.3738   8.9424  14.1382  14.4228  17.7691  18.7626  20.2746  21.3622

          k = 0.0417-0.5533-0.1835 (  4000 PWs)   bands (ev):

    -7.3691  -7.3690  -6.1206  -6.1205   0.3484   0.3485   4.4779   4.4779
     8.5551   8.5551  14.2780  14.2780  18.8834  18.8834  20.2901  20.2901

          k = 0.0417-0.5533-0.0917 (  4003 PWs)   bands (ev):

    -7.4342  -7.3047  -6.1731  -6.0626   0.3269   0.3703   4.1456   4.7515
     8.3738   8.9424  14.1382  14.4228  17.7691  18.7626  20.2746  21.3622

          k = 0.0417-0.5052 0.0000 (  4007 PWs)   bands (ev):

    -8.2239  -7.9940  -5.3438  -5.1665   0.4002   0.4620   3.3649   4.6501
     8.7988   9.8126  14.1307  14.5225  16.1913  19.4422  20.3264  25.5541

          k = 0.0417-0.5052 0.0917 (  3999 PWs)   bands (ev):

    -8.1915  -8.0290  -5.3187  -5.1934   0.4093   0.4527   3.5480   4.4623
     8.8682   9.5944  14.1866  14.4645  16.7941  19.4426  20.1528  21.8085

          k = 0.0417-0.5052-0.1835 (  3996 PWs)   bands (ev):

    -8.1116  -8.1115  -5.2572  -5.2571   0.4309   0.4310   4.0013   4.0013
     9.1620   9.1620  14.3237  14.3237  18.2037  18.2037  20.9469  20.9469

          k = 0.0417-0.5052-0.0917 (  3999 PWs)   bands (ev):

    -8.1915  -8.0290  -5.3187  -5.1934   0.4093   0.4527   3.5480   4.4623
     8.8682   9.5944  14.1866  14.4645  16.7941  19.4426  20.1528  21.8085

          k = 0.0417-0.4571 0.0000 (  3993 PWs)   bands (ev):

    -8.9859  -8.7377  -4.3455  -4.1808   0.5641   0.6253   2.5708   4.1463
     9.6689  10.7476  14.2244  14.5910  15.2361  19.9059  20.4711  24.5821

          k = 0.0417-0.4571 0.0917 (  4006 PWs)   bands (ev):

    -8.9511  -8.7758  -4.3224  -4.2058   0.5729   0.6156   2.7783   3.8883
     9.7733  10.5404  14.2807  14.5423  15.8793  19.0935  20.8703  22.3576

          k = 0.0417-0.4571-0.1835 (  4012 PWs)   bands (ev):

    -8.8651  -8.8651  -4.2650  -4.2649   0.5940   0.5941   3.3080   3.3080
    10.1099  10.1099  14.4125  14.4125  17.4394  17.4394  21.6372  21.6372

          k = 0.0417-0.4571-0.0917 (  4006 PWs)   bands (ev):

    -8.9511  -8.7758  -4.3224  -4.2058   0.5729   0.6156   2.7783   3.8883
     9.7733  10.5404  14.2807  14.5423  15.8793  19.0935  20.8703  22.3576

          k = 0.0417-0.4090 0.0000 (  3993 PWs)   bands (ev):

    -9.6897  -9.4271  -3.2899  -3.1418   0.8055   0.8655   1.7740   3.5138
    10.7804  11.7990  14.2314  14.4179  14.7738  19.4620  21.2163  23.4024

          k = 0.0417-0.4090 0.0917 (  4012 PWs)   bands (ev):

    -9.6531  -9.4675  -3.2689  -3.1643   0.8142   0.8561   1.9964   3.2174
    10.8871  11.6121  14.4116  14.6173  15.0854  18.5480  21.4929  22.7772

          k = 0.0417-0.4090-0.1835 (  4018 PWs)   bands (ev):

    -9.5622  -9.5622  -3.2175  -3.2175   0.8351   0.8352   2.5711   2.5711
    11.2141  11.2141  14.5389  14.5389  16.7033  16.7033  22.1014  22.1014

          k = 0.0417-0.4090-0.0917 (  4012 PWs)   bands (ev):

    -9.6531  -9.4675  -3.2689  -3.1643   0.8142   0.8561   1.9964   3.2174
    10.8871  11.6121  14.4116  14.6173  15.0854  18.5480  21.4929  22.7772

          k = 0.0417-0.3608 0.0000 (  4015 PWs)   bands (ev):

   -10.3242 -10.0491  -2.2004  -2.0704   1.0265   1.1189   1.1773   2.8707
    11.9988  12.8966  13.4945  14.5571  14.8991  19.0165  21.2914  22.1077

          k = 0.0417-0.3608 0.0917 (  4021 PWs)   bands (ev):

   -10.2859 -10.0916  -2.1820  -2.0900   1.1276   1.1684   1.2593   2.5512
    12.0868  12.7332  14.1810  14.6071  14.8941  18.0011  21.4480  22.0226

          k = 0.0417-0.3608-0.1835 (  4014 PWs)   bands (ev):

   -10.1908 -10.1908  -2.1365  -2.1364   1.1479   1.1480   1.8638   1.8638
    12.3812  12.3812  14.6910  14.6910  16.0329  16.0329  21.7658  21.7659

          k = 0.0417-0.3608-0.0917 (  4021 PWs)   bands (ev):

   -10.2859 -10.0916  -2.1820  -2.0900   1.1276   1.1684   1.2593   2.5512
    12.0868  12.7332  14.1810  14.6071  14.8941  18.0011  21.4480  22.0226

          k = 0.0417-0.3127 0.0000 (  4026 PWs)   bands (ev):

   -10.8849 -10.5986  -1.0975  -0.9860   0.3522   1.4964   1.5520   2.2693
    12.7975  13.2479  13.9976  14.7574  15.0614  18.5881  20.5056  20.7790

          k = 0.0417-0.3127 0.0917 (  4016 PWs)   bands (ev):

   -10.8451 -10.6428  -1.0811  -1.0025   0.5925   1.5047   1.5435   1.9340
    13.2085  13.6323  13.8636  14.7992  15.0467  17.4885  20.5609  20.7497

          k = 0.0417-0.3127-0.1835 (  4000 PWs)   bands (ev):

   -10.7463 -10.7462  -1.0418  -1.0418   1.2179   1.2180   1.5242   1.5243
    13.5447  13.5447  14.8306  14.8306  15.4808  15.4808  20.6665  20.6665

          k = 0.0417-0.3127-0.0917 (  4016 PWs)   bands (ev):

   -10.8451 -10.6428  -1.0811  -1.0025   0.5925   1.5047   1.5435   1.9340
    13.2085  13.6323  13.8636  14.7992  15.0467  17.4885  20.5609  20.7497

          k = 0.0417-0.2646 0.0000 (  4027 PWs)   bands (ev):

   -11.3689 -11.0729  -0.2374  -0.0053   0.0867   1.7333   1.9250   1.9768
    12.1939  14.4698  14.9671  15.0675  15.2255  18.1928  19.3565  19.4850

          k = 0.0417-0.2646 0.0917 (  4018 PWs)   bands (ev):

   -11.3279 -11.1188   0.0032   0.0115   0.0749   1.3869   1.9327   1.9689
    12.9049  14.5490  14.9095  15.0120  15.2540  17.0300  19.3799  19.4693

          k = 0.0417-0.2646-0.1835 (  4016 PWs)   bands (ev):

   -11.2258 -11.2257   0.0404   0.0404   0.6498   0.6499   1.9507   1.9507
    14.4730  14.4730  14.8782  14.8782  15.3014  15.3014  19.4273  19.4273

          k = 0.0417-0.2646-0.0917 (  4018 PWs)   bands (ev):

   -11.3279 -11.1188   0.0032   0.0115   0.0749   1.3869   1.9327   1.9689
    12.9049  14.5490  14.9095  15.0120  15.2540  17.0300  19.3799  19.4693

          k = 0.0417-0.2165 0.0000 (  4025 PWs)   bands (ev):

   -11.7744 -11.4703  -0.7355   1.0421   1.1150   1.2753   2.3859   2.4319
    11.6885  15.1570  15.3631  15.6089  16.0708  17.8449  18.2013  18.2849

          k = 0.0417-0.2165 0.0917 (  4024 PWs)   bands (ev):

   -11.7324 -11.5175  -0.4856   0.9195   1.0533   1.1042   2.3927   2.4249
    12.4262  15.1567  15.3168  15.6902  15.9940  16.6530  18.2153  18.2734

          k = 0.0417-0.2165-0.1835 (  4020 PWs)   bands (ev):

   -11.6276 -11.6275   0.1673   0.1673   1.0786   1.0787   2.4087   2.4087
    14.2586  14.2586  15.2643  15.2643  15.9075  15.9075  18.2451  18.2451

          k = 0.0417-0.2165-0.0917 (  4024 PWs)   bands (ev):

   -11.7324 -11.5175  -0.4856   0.9195   1.0533   1.1042   2.3927   2.4249
    12.4262  15.1567  15.3168  15.6902  15.9940  16.6530  18.2153  18.2734

          k = 0.0417-0.1684 0.0000 (  4030 PWs)   bands (ev):

   -12.1003 -11.7895  -1.1376   0.9032   1.9993   2.0528   2.8512   2.8896
    11.2832  15.2905  15.4396  16.6083  16.9668  17.1681  17.2347  17.5594

          k = 0.0417-0.1684 0.0917 (  4025 PWs)   bands (ev):

   -12.0574 -11.8379  -0.8844   0.5417   2.0074   2.0450   2.8568   2.8838
    12.0351  15.2884  15.4157  16.2515  16.6838  16.9433  17.1802  17.2261

          k = 0.0417-0.1684-0.1835 (  4024 PWs)   bands (ev):

   -11.9504 -11.9503  -0.2226  -0.2225   2.0261   2.0261   2.8702   2.8702
    13.9217  13.9217  15.3791  15.3792  16.8092  16.8092  17.2042  17.2043

          k = 0.0417-0.1684-0.0917 (  4025 PWs)   bands (ev):

   -12.0574 -11.8379  -0.8844   0.5417   2.0074   2.0450   2.8568   2.8838
    12.0351  15.2884  15.4157  16.2515  16.6838  16.9433  17.1802  17.2261

          k = 0.0417-0.1203 0.0000 (  4021 PWs)   bands (ev):

   -12.3454 -12.0296  -1.4411   0.6212   2.8084   2.8436   3.2813   3.3098
    10.9792  15.3333  15.4339  16.3307  16.3898  17.2897  17.4524  17.7255

          k = 0.0417-0.1203 0.0917 (  4036 PWs)   bands (ev):

   -12.3019 -12.0788  -1.1857   0.2549   2.8137   2.8385   3.2852   3.3051
    11.7401  15.3258  15.4192  16.0230  16.3389  16.3801  17.4713  17.6793

          k = 0.0417-0.1203-0.1835 (  4026 PWs)   bands (ev):

   -12.1932 -12.1931  -0.5172  -0.5172   2.8265   2.8266   3.2947   3.2948
    13.6552  13.6552  15.3935  15.3936  16.3588  16.3589  17.5755  17.5755

          k = 0.0417-0.1203-0.0917 (  4036 PWs)   bands (ev):

   -12.3019 -12.0788  -1.1857   0.2549   2.8137   2.8385   3.2852   3.3051
    11.7401  15.3258  15.4192  16.0230  16.3389  16.3801  17.4713  17.6793

          k = 0.0417-0.0722 0.0000 (  4023 PWs)   bands (ev):

   -12.5092 -12.1901  -1.6443   0.4317   3.4018   3.4253   3.6194   3.6402
    10.7768  15.2910  15.3650  15.7391  15.7948  17.1650  18.0060  18.2592

          k = 0.0417-0.0722 0.0917 (  4037 PWs)   bands (ev):

   -12.4652 -12.2398  -1.3875   0.0626   3.4054   3.4222   3.6220   3.6369
    11.5433  15.2880  15.3545  15.7470  15.7859  15.8479  18.0368  18.2147

          k = 0.0417-0.0722-0.1835 (  4038 PWs)   bands (ev):

   -12.3554 -12.3554  -0.7148  -0.7148   3.4136   3.4137   3.6288   3.6289
    13.4751  13.4751  15.3328  15.3329  15.7659  15.7659  18.1214  18.1214

          k = 0.0417-0.0722-0.0917 (  4037 PWs)   bands (ev):

   -12.4652 -12.2398  -1.3875   0.0626   3.4054   3.4222   3.6220   3.6369
    11.5433  15.2880  15.3545  15.7470  15.7859  15.8479  18.0368  18.2147

          k = 0.0417-0.0241 0.0000 (  4025 PWs)   bands (ev):

   -12.5912 -12.2704  -1.7459   0.3363   3.7195   3.7440   3.7994   3.8229
    10.6757  15.2488  15.3120  15.4180  15.4721  17.0899  18.3063  18.5404

          k = 0.0417-0.0241 0.0917 (  4036 PWs)   bands (ev):

   -12.5470 -12.3204  -1.4885  -0.0339   3.7232   3.7406   3.8028   3.8193
    11.4450  15.2525  15.3026  15.4251  15.4639  15.7548  18.3326  18.4941

          k = 0.0417-0.0241-0.1835 (  4038 PWs)   bands (ev):

   -12.4366 -12.4366  -0.8139  -0.8139   3.7312   3.7313   3.8111   3.8112
    13.3849  13.3849  15.2814  15.2815  15.4444  15.4444  18.4053  18.4053

          k = 0.0417-0.0241-0.0917 (  4036 PWs)   bands (ev):

   -12.5470 -12.3204  -1.4885  -0.0339   3.7232   3.7406   3.8028   3.8193
    11.4450  15.2525  15.3026  15.4251  15.4639  15.7548  18.3326  18.4941

          k = 0.0833 0.0481 0.0000 (  4025 PWs)   bands (ev):

   -12.4683 -12.1499  -1.5933   0.4790   3.2299   3.2645   3.5421   3.5728
    10.8273  15.2583  15.3454  15.9430  15.9975  17.2011  17.8582  18.1232

          k = 0.0833 0.0481 0.0917 (  4045 PWs)   bands (ev):

   -12.4244 -12.1995  -1.3370   0.1105   3.2347   3.2599   3.5464   3.5680
    11.5924  15.2558  15.3328  15.8916  15.9500  15.9888  17.8905  18.0779

          k = 0.0833 0.0481-0.1835 (  4030 PWs)   bands (ev):

   -12.3148 -12.3148  -0.6652  -0.6652   3.2468   3.2469   3.5576   3.5577
    13.5200  13.5200  15.3083  15.3083  15.9694  15.9695  17.9813  17.9813

          k = 0.0833 0.0481-0.0917 (  4045 PWs)   bands (ev):

   -12.4244 -12.1995  -1.3370   0.1105   3.2347   3.2599   3.5464   3.5680
    11.5924  15.2558  15.3328  15.8916  15.9500  15.9888  17.8905  18.0779

          k = 0.0833 0.0962 0.0000 (  4021 PWs)   bands (ev):

   -12.3454 -12.0296  -1.4411   0.6212   2.8084   2.8436   3.2813   3.3098
    10.9792  15.3333  15.4339  16.3307  16.3898  17.2897  17.4524  17.7255

          k = 0.0833 0.0962 0.0917 (  4036 PWs)   bands (ev):

   -12.3019 -12.0788  -1.1857   0.2549   2.8137   2.8385   3.2852   3.3051
    11.7401  15.3258  15.4192  16.0230  16.3389  16.3801  17.4713  17.6793

          k = 0.0833 0.0962-0.1835 (  4026 PWs)   bands (ev):

   -12.1932 -12.1931  -0.5172  -0.5172   2.8265   2.8266   3.2947   3.2948
    13.6552  13.6552  15.3935  15.3936  16.3588  16.3589  17.5755  17.5755

          k = 0.0833 0.0962-0.0917 (  4036 PWs)   bands (ev):

   -12.3019 -12.0788  -1.1857   0.2549   2.8137   2.8385   3.2852   3.3051
    11.7401  15.3258  15.4192  16.0230  16.3389  16.3801  17.4713  17.6793

          k = 0.0833 0.1443 0.0000 (  4031 PWs)   bands (ev):

   -12.1411 -11.8295  -1.1881   0.8559   2.1948   2.2288   2.8547   2.8795
    11.2329  15.5105  15.6237  16.7559  16.7856  16.8558  17.0956  17.5034

          k = 0.0833 0.1443 0.0917 (  4019 PWs)   bands (ev):

   -12.0981 -11.8780  -0.9345   0.4943   2.2004   2.2244   2.8579   2.8756
    11.9866  15.4931  15.6065  16.2339  16.7932  16.8043  16.8627  17.0555

          k = 0.0833 0.1443-0.1835 (  4032 PWs)   bands (ev):

   -11.9908 -11.9907  -0.2714  -0.2714   2.2123   2.2123   2.8657   2.8657
    13.8807  13.8807  15.5772  15.5772  16.8095  16.8095  16.9520  16.9520

          k = 0.0833 0.1443-0.0917 (  4019 PWs)   bands (ev):

   -12.0981 -11.8780  -0.9345   0.4943   2.2004   2.2244   2.8579   2.8756
    11.9866  15.4931  15.6065  16.2339  16.7932  16.8043  16.8627  17.0555

          k = 0.0833 0.1925 0.0000 (  4032 PWs)   bands (ev):

   -11.8558 -11.5500  -0.8356   1.1828   1.4017   1.4503   2.3448   2.3787
    11.5883  15.6007  15.7577  15.8965  16.2905  17.4026  17.5002  17.7444

          k = 0.0833 0.1925 0.0917 (  4024 PWs)   bands (ev):

   -11.8136 -11.5975  -0.5848   0.8261   1.4091   1.4435   2.3492   2.3738
    12.3309  15.5713  15.7130  15.9757  16.2511  16.5409  17.4185  17.4871

          k = 0.0833 0.1925-0.1835 (  4024 PWs)   bands (ev):

   -11.7082 -11.7081   0.0703   0.0703   1.4267   1.4267   2.3608   2.3609
    14.1914  14.1915  15.6537  15.6537  16.1587  16.1587  17.4537  17.4538

          k = 0.0833 0.1925-0.0917 (  4024 PWs)   bands (ev):

   -11.8136 -11.5975  -0.5848   0.8261   1.4091   1.4435   2.3492   2.3738
    12.3309  15.5713  15.7130  15.9757  16.2511  16.5409  17.4185  17.4871

          k = 0.0833 0.2406 0.0000 (  4025 PWs)   bands (ev):

   -11.4904 -11.1920  -0.3859   0.4662   0.5381   1.5974   1.8298   1.8768
    12.0445  14.8766  15.3623  15.5311  15.7546  18.0431  18.2345  18.3928

          k = 0.0833 0.2406 0.0917 (  4021 PWs)   bands (ev):

   -11.4491 -11.2383  -0.1391   0.4766   0.5277   1.2484   1.8361   1.8697
    12.7695  14.9326  15.2495  15.5635  15.7662  16.8761  18.2620  18.3719

          k = 0.0833 0.2406-0.1835 (  4014 PWs)   bands (ev):

   -11.3462 -11.3461   0.4887   0.4887   0.5196   0.5196   1.8526   1.8527
    14.5515  14.5516  15.1074  15.1074  15.7453  15.7454  18.3190  18.3191

          k = 0.0833 0.2406-0.0917 (  4021 PWs)   bands (ev):

   -11.4491 -11.2383  -0.1391   0.4766   0.5277   1.2484   1.8361   1.8697
    12.7695  14.9326  15.2495  15.5635  15.7662  16.8761  18.2620  18.3719

          k = 0.0833 0.2887 0.0000 (  4030 PWs)   bands (ev):

   -11.0460 -10.7565  -0.5588  -0.4643   0.1576   1.3507   1.4070   2.0941
    12.6001  13.7413  14.3545  15.3697  15.6512  18.3853  19.2050  19.4730

          k = 0.0833 0.2887 0.0917 (  4021 PWs)   bands (ev):

   -11.0059 -10.8013  -0.5452  -0.4782   0.3998   1.3586   1.3986   1.7550
    13.2725  13.8603  14.2442  15.4053  15.6334  17.2829  19.2533  19.4392

          k = 0.0833 0.2887-0.1835 (  4012 PWs)   bands (ev):

   -10.9059 -10.9059  -0.5117  -0.5117   1.0311   1.0311   1.3786   1.3787
    13.9873  13.9873  15.0623  15.0624  15.6407  15.6407  19.3512  19.3512

          k = 0.0833 0.2887-0.0917 (  4021 PWs)   bands (ev):

   -11.0059 -10.8013  -0.5452  -0.4782   0.3998   1.3586   1.3986   1.7550
    13.2725  13.8603  14.2442  15.4053  15.6334  17.2829  19.2533  19.4392

          k = 0.0833 0.3368 0.0000 (  4020 PWs)   bands (ev):

   -10.5242 -10.2452  -1.6273  -1.5115   0.7895   0.9268   0.9892   2.6639
    12.5423  13.2531  13.3007  15.1783  15.5069  18.7546  20.1569  20.6671

          k = 0.0833 0.3368 0.0917 (  4017 PWs)   bands (ev):

   -10.4854 -10.2882  -1.6105  -1.5288   0.9356   0.9800   1.0253   2.3377
    12.6156  13.1691  13.9654  15.2212  15.4809  17.7407  20.2487  20.6030

          k = 0.0833 0.3368-0.1835 (  4012 PWs)   bands (ev):

   -10.3890 -10.3889  -1.5699  -1.5698   0.9576   0.9577   1.6382   1.6382
    12.8743  12.8743  15.2485  15.2485  15.8347  15.8347  20.4348  20.4349

          k = 0.0833 0.3368-0.0917 (  4017 PWs)   bands (ev):

   -10.4854 -10.2882  -1.6105  -1.5288   0.9356   0.9800   1.0253   2.3377
    12.6156  13.1691  13.9654  15.2212  15.4809  17.7407  20.2487  20.6030

          k = 0.0833 0.3849 0.0000 (  4006 PWs)   bands (ev):

    -9.9273  -9.6601  -2.7044  -2.5691   0.5687   0.6353   1.5010   3.2895
    11.3335  12.2299  13.9980  14.9950  15.3603  19.1328  20.7876  21.9095

          k = 0.0833 0.3849 0.0917 (  4009 PWs)   bands (ev):

    -9.8901  -9.7012  -2.6852  -2.5895   0.5783   0.6254   1.7282   2.9820
    11.4326  12.0733  14.6486  15.0469  15.3452  18.2285  20.9616  21.7269

          k = 0.0833 0.3849-0.1835 (  4012 PWs)   bands (ev):

    -9.7976  -9.7976  -2.6381  -2.6380   0.6017   0.6018   2.3165   2.3165
    11.7280  11.7280  15.1397  15.1397  16.4068  16.4068  21.3365  21.3366

          k = 0.0833 0.3849-0.0917 (  4009 PWs)   bands (ev):

    -9.8901  -9.7012  -2.6852  -2.5895   0.5783   0.6254   1.7282   2.9820
    11.4326  12.0733  14.6486  15.0469  15.3452  18.2285  20.9616  21.7269

          k = 0.0833 0.4330 0.0000 (  4001 PWs)   bands (ev):

    -9.2589  -9.0050  -3.7649  -3.6112   0.2838   0.3530   2.2764   3.9372
    10.1790  11.1773  14.7556  14.8999  15.2496  19.5018  20.6940  22.0610

          k = 0.0833 0.4330 0.0917 (  4006 PWs)   bands (ev):

    -9.2233  -9.0440  -3.7433  -3.6345   0.2938   0.3428   2.4913   3.6587
    10.2859  10.9965  14.8744  15.1068  15.5693  18.7147  20.9610  22.0335

          k = 0.0833 0.4330-0.1835 (  4010 PWs)   bands (ev):

    -9.1354  -9.1354  -3.6897  -3.6896   0.3181   0.3182   3.0438   3.0438
    10.6073  10.6073  15.0070  15.0070  17.0803  17.0803  21.5197  21.5197

          k = 0.0833 0.4330-0.0917 (  4006 PWs)   bands (ev):

    -9.2233  -9.0440  -3.7433  -3.6345   0.2938   0.3428   2.4913   3.6587
    10.2859  10.9965  14.8744  15.1068  15.5693  18.7147  20.9610  22.0335

          k = 0.0833 0.4811 0.0000 (  3999 PWs)   bands (ev):

    -8.5256  -8.2876  -4.7855  -4.6161   0.0773   0.1478   3.0818   4.5300
     9.1786  10.1918  14.7045  15.1009  15.8071  19.8475  19.9547  21.5175

          k = 0.0833 0.4811 0.0917 (  4000 PWs)   bands (ev):

    -8.4922  -8.3240  -4.7617  -4.6419   0.0873   0.1376   3.2782   4.3021
     9.2697   9.9936  14.7617  15.0428  16.3999  19.1293  20.3975  21.6000

          k = 0.0833 0.4811-0.1835 (  4002 PWs)   bands (ev):

    -8.4096  -8.4096  -4.7027  -4.7026   0.1123   0.1124   3.7736   3.7736
     9.5815   9.5815  14.9003  14.9004  17.7864  17.7864  21.0861  21.0861

          k = 0.0833 0.4811-0.0917 (  4000 PWs)   bands (ev):

    -8.4922  -8.3240  -4.7617  -4.6419   0.0873   0.1376   3.2782   4.3021
     9.2697   9.9936  14.7617  15.0428  16.3999  19.1293  20.3975  21.6000

          k = 0.0833 0.5292 0.0000 (  4006 PWs)   bands (ev):

    -7.7502  -7.5367  -5.7275  -5.5525  -0.0481   0.0232   3.8322   4.9005
     8.5152   9.3711  14.6324  15.0467  16.7998  18.9415  20.1557  21.0980

          k = 0.0833 0.5292 0.0917 (  3998 PWs)   bands (ev):

    -7.7198  -7.5689  -5.7032  -5.5795  -0.0378   0.0132   3.9973   4.7640
     8.5488   9.1687  14.6895  14.9839  17.3231  19.0818  19.9811  21.1736

          k = 0.0833 0.5292-0.1835 (  4000 PWs)   bands (ev):

    -7.6454  -7.6453  -5.6429  -5.6428  -0.0124  -0.0124   4.3931   4.3931
     8.7785   8.7785  14.8328  14.8328  18.4472  18.4472  20.5354  20.5354

          k = 0.0833 0.5292-0.0917 (  3998 PWs)   bands (ev):

    -7.7198  -7.5689  -5.7032  -5.5795  -0.0378   0.0132   3.9973   4.7640
     8.5488   9.1687  14.6895  14.9839  17.3231  19.0818  19.9811  21.1736

          k = 0.0833 0.5774 0.0000 (  4006 PWs)   bands (ev):

    -7.1683  -7.0521  -6.2762  -6.1887  -0.0900  -0.0185   4.2282   4.9448
     8.3363   8.9866  14.6077  15.0265  17.8180  17.9026  20.3277  20.8900

          k = 0.0833 0.5774 0.0917 (  3999 PWs)   bands (ev):

    -7.1480  -7.0651  -6.2699  -6.2071  -0.0797  -0.0283   4.3638   4.8852
     8.3152   8.7908  14.6650  14.9630  18.1936  18.3500  20.0448  20.9696

          k = 0.0833 0.5774-0.1835 (  3988 PWs)   bands (ev):

    -7.1029  -7.1028  -6.2444  -6.2444  -0.0540  -0.0539   4.6619   4.6619
     8.4477   8.4477  14.8098  14.8099  18.7943  18.7943  20.2226  20.2226

          k = 0.0833 0.5774-0.0917 (  3999 PWs)   bands (ev):

    -7.1480  -7.0651  -6.2699  -6.2071  -0.0797  -0.0283   4.3638   4.8852
     8.3152   8.7908  14.6650  14.9630  18.1936  18.3500  20.0448  20.9696

          k = 0.0833-0.5292 0.0000 (  4006 PWs)   bands (ev):

    -7.7502  -7.5367  -5.7275  -5.5525  -0.0481   0.0232   3.8322   4.9005
     8.5152   9.3711  14.6324  15.0467  16.7998  18.9415  20.1557  21.0980

          k = 0.0833-0.5292 0.0917 (  3998 PWs)   bands (ev):

    -7.7198  -7.5689  -5.7032  -5.5795  -0.0378   0.0132   3.9973   4.7640
     8.5488   9.1687  14.6895  14.9839  17.3231  19.0818  19.9811  21.1736

          k = 0.0833-0.5292-0.1835 (  4000 PWs)   bands (ev):

    -7.6454  -7.6453  -5.6429  -5.6428  -0.0124  -0.0124   4.3931   4.3931
     8.7785   8.7785  14.8328  14.8328  18.4472  18.4472  20.5354  20.5354

          k = 0.0833-0.5292-0.0917 (  3998 PWs)   bands (ev):

    -7.7198  -7.5689  -5.7032  -5.5795  -0.0378   0.0132   3.9973   4.7640
     8.5488   9.1687  14.6895  14.9839  17.3231  19.0818  19.9811  21.1736

          k = 0.0833-0.4811 0.0000 (  3999 PWs)   bands (ev):

    -8.5256  -8.2876  -4.7855  -4.6161   0.0773   0.1478   3.0818   4.5300
     9.1786  10.1918  14.7045  15.1009  15.8071  19.8475  19.9547  21.5175

          k = 0.0833-0.4811 0.0917 (  4000 PWs)   bands (ev):

    -8.4922  -8.3240  -4.7617  -4.6419   0.0873   0.1376   3.2782   4.3021
     9.2697   9.9936  14.7617  15.0428  16.3999  19.1293  20.3975  21.6000

          k = 0.0833-0.4811-0.1835 (  4002 PWs)   bands (ev):

    -8.4096  -8.4096  -4.7027  -4.7026   0.1123   0.1124   3.7736   3.7736
     9.5815   9.5815  14.9003  14.9004  17.7864  17.7864  21.0861  21.0861

          k = 0.0833-0.4811-0.0917 (  4000 PWs)   bands (ev):

    -8.4922  -8.3240  -4.7617  -4.6419   0.0873   0.1376   3.2782   4.3021
     9.2697   9.9936  14.7617  15.0428  16.3999  19.1293  20.3975  21.6000

          k = 0.0833-0.4330 0.0000 (  4001 PWs)   bands (ev):

    -9.2589  -9.0050  -3.7649  -3.6112   0.2838   0.3530   2.2764   3.9372
    10.1790  11.1773  14.7556  14.8999  15.2496  19.5018  20.6940  22.0610

          k = 0.0833-0.4330 0.0917 (  4006 PWs)   bands (ev):

    -9.2233  -9.0440  -3.7433  -3.6345   0.2938   0.3428   2.4913   3.6587
    10.2859  10.9965  14.8744  15.1068  15.5693  18.7147  20.9610  22.0335

          k = 0.0833-0.4330-0.1835 (  4010 PWs)   bands (ev):

    -9.1354  -9.1354  -3.6897  -3.6896   0.3181   0.3182   3.0438   3.0438
    10.6073  10.6073  15.0070  15.0070  17.0803  17.0803  21.5197  21.5197

          k = 0.0833-0.4330-0.0917 (  4006 PWs)   bands (ev):

    -9.2233  -9.0440  -3.7433  -3.6345   0.2938   0.3428   2.4913   3.6587
    10.2859  10.9965  14.8744  15.1068  15.5693  18.7147  20.9610  22.0335

          k = 0.0833-0.3849 0.0000 (  4006 PWs)   bands (ev):

    -9.9273  -9.6601  -2.7044  -2.5691   0.5687   0.6353   1.5010   3.2895
    11.3335  12.2299  13.9980  14.9950  15.3603  19.1328  20.7876  21.9095

          k = 0.0833-0.3849 0.0917 (  4009 PWs)   bands (ev):

    -9.8901  -9.7012  -2.6852  -2.5895   0.5783   0.6254   1.7282   2.9820
    11.4326  12.0733  14.6486  15.0469  15.3452  18.2285  20.9616  21.7269

          k = 0.0833-0.3849-0.1835 (  4012 PWs)   bands (ev):

    -9.7976  -9.7976  -2.6381  -2.6380   0.6017   0.6018   2.3165   2.3165
    11.7280  11.7280  15.1397  15.1397  16.4068  16.4068  21.3365  21.3366

          k = 0.0833-0.3849-0.0917 (  4009 PWs)   bands (ev):

    -9.8901  -9.7012  -2.6852  -2.5895   0.5783   0.6254   1.7282   2.9820
    11.4326  12.0733  14.6486  15.0469  15.3452  18.2285  20.9616  21.7269

          k = 0.0833-0.3368 0.0000 (  4020 PWs)   bands (ev):

   -10.5242 -10.2452  -1.6273  -1.5115   0.7895   0.9268   0.9892   2.6639
    12.5423  13.2531  13.3007  15.1783  15.5069  18.7546  20.1569  20.6671

          k = 0.0833-0.3368 0.0917 (  4017 PWs)   bands (ev):

   -10.4854 -10.2882  -1.6105  -1.5288   0.9356   0.9800   1.0253   2.3377
    12.6156  13.1691  13.9654  15.2212  15.4809  17.7407  20.2487  20.6030

          k = 0.0833-0.3368-0.1835 (  4012 PWs)   bands (ev):

   -10.3890 -10.3889  -1.5699  -1.5698   0.9576   0.9577   1.6382   1.6382
    12.8743  12.8743  15.2485  15.2485  15.8347  15.8347  20.4348  20.4349

          k = 0.0833-0.3368-0.0917 (  4017 PWs)   bands (ev):

   -10.4854 -10.2882  -1.6105  -1.5288   0.9356   0.9800   1.0253   2.3377
    12.6156  13.1691  13.9654  15.2212  15.4809  17.7407  20.2487  20.6030

          k = 0.0833-0.2887 0.0000 (  4030 PWs)   bands (ev):

   -11.0460 -10.7565  -0.5588  -0.4643   0.1576   1.3507   1.4070   2.0941
    12.6001  13.7413  14.3545  15.3697  15.6512  18.3853  19.2050  19.4730

          k = 0.0833-0.2887 0.0917 (  4021 PWs)   bands (ev):

   -11.0059 -10.8013  -0.5452  -0.4782   0.3998   1.3586   1.3986   1.7550
    13.2725  13.8603  14.2442  15.4053  15.6334  17.2829  19.2533  19.4392

          k = 0.0833-0.2887-0.1835 (  4012 PWs)   bands (ev):

   -10.9059 -10.9059  -0.5117  -0.5117   1.0311   1.0311   1.3786   1.3787
    13.9873  13.9873  15.0623  15.0624  15.6407  15.6407  19.3512  19.3512

          k = 0.0833-0.2887-0.0917 (  4021 PWs)   bands (ev):

   -11.0059 -10.8013  -0.5452  -0.4782   0.3998   1.3586   1.3986   1.7550
    13.2725  13.8603  14.2442  15.4053  15.6334  17.2829  19.2533  19.4392

          k = 0.0833-0.2406 0.0000 (  4025 PWs)   bands (ev):

   -11.4904 -11.1920  -0.3859   0.4662   0.5381   1.5974   1.8298   1.8768
    12.0445  14.8766  15.3623  15.5311  15.7546  18.0431  18.2345  18.3928

          k = 0.0833-0.2406 0.0917 (  4021 PWs)   bands (ev):

   -11.4491 -11.2383  -0.1391   0.4766   0.5277   1.2484   1.8361   1.8697
    12.7695  14.9326  15.2495  15.5635  15.7662  16.8761  18.2620  18.3719

          k = 0.0833-0.2406-0.1835 (  4014 PWs)   bands (ev):

   -11.3462 -11.3461   0.4887   0.4887   0.5196   0.5196   1.8526   1.8527
    14.5515  14.5516  15.1074  15.1074  15.7453  15.7454  18.3190  18.3191

          k = 0.0833-0.2406-0.0917 (  4021 PWs)   bands (ev):

   -11.4491 -11.2383  -0.1391   0.4766   0.5277   1.2484   1.8361   1.8697
    12.7695  14.9326  15.2495  15.5635  15.7662  16.8761  18.2620  18.3719

          k = 0.0833-0.1925 0.0000 (  4032 PWs)   bands (ev):

   -11.8558 -11.5500  -0.8356   1.1828   1.4017   1.4503   2.3448   2.3787
    11.5883  15.6007  15.7577  15.8965  16.2905  17.4026  17.5002  17.7444

          k = 0.0833-0.1925 0.0917 (  4024 PWs)   bands (ev):

   -11.8136 -11.5975  -0.5848   0.8261   1.4091   1.4435   2.3492   2.3738
    12.3309  15.5713  15.7130  15.9757  16.2511  16.5409  17.4185  17.4871

          k = 0.0833-0.1925-0.1835 (  4024 PWs)   bands (ev):

   -11.7082 -11.7081   0.0703   0.0703   1.4267   1.4267   2.3608   2.3609
    14.1914  14.1915  15.6537  15.6537  16.1587  16.1587  17.4537  17.4538

          k = 0.0833-0.1925-0.0917 (  4024 PWs)   bands (ev):

   -11.8136 -11.5975  -0.5848   0.8261   1.4091   1.4435   2.3492   2.3738
    12.3309  15.5713  15.7130  15.9757  16.2511  16.5409  17.4185  17.4871

          k = 0.0833-0.1443 0.0000 (  4031 PWs)   bands (ev):

   -12.1411 -11.8295  -1.1881   0.8559   2.1948   2.2288   2.8547   2.8795
    11.2329  15.5105  15.6237  16.7559  16.7856  16.8558  17.0956  17.5034

          k = 0.0833-0.1443 0.0917 (  4019 PWs)   bands (ev):

   -12.0981 -11.8780  -0.9345   0.4943   2.2004   2.2244   2.8579   2.8756
    11.9866  15.4931  15.6065  16.2339  16.7932  16.8043  16.8627  17.0555

          k = 0.0833-0.1443-0.1835 (  4032 PWs)   bands (ev):

   -11.9908 -11.9907  -0.2714  -0.2714   2.2123   2.2123   2.8657   2.8657
    13.8807  13.8807  15.5772  15.5772  16.8095  16.8095  16.9520  16.9520

          k = 0.0833-0.1443-0.0917 (  4019 PWs)   bands (ev):

   -12.0981 -11.8780  -0.9345   0.4943   2.2004   2.2244   2.8579   2.8756
    11.9866  15.4931  15.6065  16.2339  16.7932  16.8043  16.8627  17.0555

          k = 0.0833-0.0962 0.0000 (  4021 PWs)   bands (ev):

   -12.3454 -12.0296  -1.4411   0.6212   2.8084   2.8436   3.2813   3.3098
    10.9792  15.3333  15.4339  16.3307  16.3898  17.2897  17.4524  17.7255

          k = 0.0833-0.0962 0.0917 (  4036 PWs)   bands (ev):

   -12.3019 -12.0788  -1.1857   0.2549   2.8137   2.8385   3.2852   3.3051
    11.7401  15.3258  15.4192  16.0230  16.3389  16.3801  17.4713  17.6793

          k = 0.0833-0.0962-0.1835 (  4026 PWs)   bands (ev):

   -12.1932 -12.1931  -0.5172  -0.5172   2.8265   2.8266   3.2947   3.2948
    13.6552  13.6552  15.3935  15.3936  16.3588  16.3589  17.5755  17.5755

          k = 0.0833-0.0962-0.0917 (  4036 PWs)   bands (ev):

   -12.3019 -12.0788  -1.1857   0.2549   2.8137   2.8385   3.2852   3.3051
    11.7401  15.3258  15.4192  16.0230  16.3389  16.3801  17.4713  17.6793

          k = 0.0833-0.0481 0.0000 (  4025 PWs)   bands (ev):

   -12.4683 -12.1499  -1.5933   0.4790   3.2299   3.2645   3.5421   3.5728
    10.8273  15.2583  15.3454  15.9430  15.9975  17.2011  17.8582  18.1232

          k = 0.0833-0.0481 0.0917 (  4045 PWs)   bands (ev):

   -12.4244 -12.1995  -1.3370   0.1105   3.2347   3.2599   3.5464   3.5680
    11.5924  15.2558  15.3328  15.8916  15.9500  15.9888  17.8905  18.0779

          k = 0.0833-0.0481-0.1835 (  4030 PWs)   bands (ev):

   -12.3148 -12.3148  -0.6652  -0.6652   3.2468   3.2469   3.5576   3.5577
    13.5200  13.5200  15.3083  15.3083  15.9694  15.9695  17.9813  17.9813

          k = 0.0833-0.0481-0.0917 (  4045 PWs)   bands (ev):

   -12.4244 -12.1995  -1.3370   0.1105   3.2347   3.2599   3.5464   3.5680
    11.5924  15.2558  15.3328  15.8916  15.9500  15.9888  17.8905  18.0779

          k = 0.0833 0.0000 0.0000 (  4023 PWs)   bands (ev):

   -12.5092 -12.1901  -1.6443   0.4317   3.4018   3.4253   3.6194   3.6402
    10.7768  15.2910  15.3650  15.7391  15.7948  17.1650  18.0060  18.2592

          k = 0.0833 0.0000 0.0917 (  4037 PWs)   bands (ev):

   -12.4652 -12.2398  -1.3875   0.0626   3.4054   3.4222   3.6220   3.6369
    11.5433  15.2880  15.3545  15.7470  15.7859  15.8479  18.0368  18.2147

          k = 0.0833 0.0000-0.1835 (  4038 PWs)   bands (ev):

   -12.3554 -12.3554  -0.7148  -0.7148   3.4136   3.4137   3.6288   3.6289
    13.4751  13.4751  15.3328  15.3329  15.7659  15.7659  18.1214  18.1214

          k = 0.0833 0.0000-0.0917 (  4037 PWs)   bands (ev):

   -12.4652 -12.2398  -1.3875   0.0626   3.4054   3.4222   3.6220   3.6369
    11.5433  15.2880  15.3545  15.7470  15.7859  15.8479  18.0368  18.2147

          k = 0.1250 0.0722 0.0000 (  4023 PWs)   bands (ev):

   -12.2636 -11.9495  -1.3396   0.7154   2.4879   2.5383   3.1682   3.2056
    11.0803  15.2098  15.3387  16.7621  16.8160  17.1206  17.3607  17.5249

          k = 0.1250 0.0722 0.0917 (  4035 PWs)   bands (ev):

   -12.2203 -11.9984  -1.0851   0.3508   2.4954   2.5307   3.1734   3.2000
    11.8382  15.2090  15.3190  16.1002  16.7693  16.8075  17.1939  17.4273

          k = 0.1250 0.0722-0.1835 (  4016 PWs)   bands (ev):

   -12.1122 -12.1121  -0.4188  -0.4188   2.5134   2.5135   3.1874   3.1874
    13.7432  13.7432  15.2876  15.2877  16.7879  16.7879  17.3101  17.3101

          k = 0.1250 0.0722-0.0917 (  4035 PWs)   bands (ev):

   -12.2203 -11.9984  -1.0851   0.3508   2.4954   2.5307   3.1734   3.2000
    11.8382  15.2090  15.3190  16.1002  16.7693  16.8075  17.1939  17.4273

          k = 0.1250 0.1203 0.0000 (  4030 PWs)   bands (ev):

   -12.1003 -11.7895  -1.1376   0.9032   1.9993   2.0528   2.8512   2.8896
    11.2832  15.2905  15.4396  16.6083  16.9668  17.1681  17.2347  17.5594

          k = 0.1250 0.1203 0.0917 (  4025 PWs)   bands (ev):

   -12.0574 -11.8379  -0.8844   0.5417   2.0074   2.0450   2.8568   2.8838
    12.0351  15.2884  15.4157  16.2515  16.6838  16.9433  17.1802  17.2261

          k = 0.1250 0.1203-0.1835 (  4024 PWs)   bands (ev):

   -11.9504 -11.9503  -0.2226  -0.2225   2.0261   2.0261   2.8702   2.8702
    13.9217  13.9217  15.3791  15.3792  16.8092  16.8092  17.2042  17.2043

          k = 0.1250 0.1203-0.0917 (  4025 PWs)   bands (ev):

   -12.0574 -11.8379  -0.8844   0.5417   2.0074   2.0450   2.8568   2.8838
    12.0351  15.2884  15.4157  16.2515  16.6838  16.9433  17.1802  17.2261

          k = 0.1250 0.1684 0.0000 (  4032 PWs)   bands (ev):

   -11.8558 -11.5500  -0.8356   1.1828   1.4017   1.4503   2.3448   2.3787
    11.5883  15.6007  15.7577  15.8965  16.2905  17.4026  17.5002  17.7444

          k = 0.1250 0.1684 0.0917 (  4024 PWs)   bands (ev):

   -11.8136 -11.5975  -0.5848   0.8261   1.4091   1.4435   2.3492   2.3738
    12.3309  15.5713  15.7130  15.9757  16.2511  16.5409  17.4185  17.4871

          k = 0.1250 0.1684-0.1835 (  4024 PWs)   bands (ev):

   -11.7082 -11.7081   0.0703   0.0703   1.4267   1.4267   2.3608   2.3609
    14.1914  14.1915  15.6537  15.6537  16.1587  16.1587  17.4537  17.4538

          k = 0.1250 0.1684-0.0917 (  4024 PWs)   bands (ev):

   -11.8136 -11.5975  -0.5848   0.8261   1.4091   1.4435   2.3492   2.3738
    12.3309  15.5713  15.7130  15.9757  16.2511  16.5409  17.4185  17.4871

          k = 0.1250 0.2165 0.0000 (  4043 PWs)   bands (ev):

   -11.5310 -11.2318  -0.4356   0.6940   0.7392   1.5521   1.7400   1.7720
    11.9948  15.0304  15.4595  15.9718  16.1329  17.6526  17.7666  17.9850

          k = 0.1250 0.2165 0.0917 (  4028 PWs)   bands (ev):

   -11.4895 -11.2782  -0.1880   0.7009   0.7331   1.2021   1.7442   1.7671
    12.7239  15.0779  15.3737  15.9769  16.1490  16.8313  17.6674  17.7496

          k = 0.1250 0.2165-0.1835 (  4026 PWs)   bands (ev):

   -11.3864 -11.3863   0.4570   0.4571   0.7184   0.7185   1.7550   1.7551
    14.5460  14.5460  15.2115  15.2115  16.1388  16.1389  17.7071  17.7072

          k = 0.1250 0.2165-0.0917 (  4028 PWs)   bands (ev):

   -11.4895 -11.2782  -0.1880   0.7009   0.7331   1.2021   1.7442   1.7671
    12.7239  15.0779  15.3737  15.9769  16.1490  16.8313  17.6674  17.7496

          k = 0.1250 0.2646 0.0000 (  4040 PWs)   bands (ev):

   -11.1268 -10.8357  -0.1495  -0.0863   0.0598   1.1431   1.1876   2.0062
    12.5014  14.0372  14.5307  16.1187  16.3475  18.1629  18.2622  18.3628

          k = 0.1250 0.2646 0.0917 (  4020 PWs)   bands (ev):

   -11.0864 -10.8807  -0.1398  -0.0952   0.3034   1.1490   1.1807   1.6648
    13.2079  14.1077  14.4504  16.1335  16.3382  17.1768  18.1941  18.3337

          k = 0.1250 0.2646-0.1835 (  4014 PWs)   bands (ev):

   -10.9859 -10.9859  -0.1172  -0.1171   0.9373   0.9373   1.1644   1.1644
    14.2601  14.2601  14.9899  14.9899  16.3070  16.3071  18.2623  18.2623

          k = 0.1250 0.2646-0.0917 (  4020 PWs)   bands (ev):

   -11.0864 -10.8807  -0.1398  -0.0952   0.3034   1.1490   1.1807   1.6648
    13.2079  14.1077  14.4504  16.1335  16.3382  17.1768  18.1941  18.3337

          k = 0.1250 0.3127 0.0000 (  4023 PWs)   bands (ev):

   -10.6446 -10.3631  -1.1063  -1.0153   0.6207   0.6465   0.6809   2.5382
    12.9484  13.1064  13.5465  16.0390  16.3493  18.5559  18.9429  19.3094

          k = 0.1250 0.3127 0.0917 (  4021 PWs)   bands (ev):

   -10.6055 -10.4066  -1.0932  -1.0287   0.6289   0.6718   0.8840   2.2083
    13.0152  13.4483  13.8114  16.0720  16.3227  17.5580  19.0058  19.2589

          k = 0.1250 0.3127-0.1835 (  4012 PWs)   bands (ev):

   -10.5082 -10.5082  -1.0609  -1.0609   0.6500   0.6501   1.5021   1.5021
    13.2269  13.2269  15.4765  15.4766  16.2835  16.2836  19.1332  19.1333

          k = 0.1250 0.3127-0.0917 (  4021 PWs)   bands (ev):

   -10.6055 -10.4066  -1.0932  -1.0287   0.6289   0.6718   0.8840   2.2083
    13.0152  13.4483  13.8114  16.0720  16.3227  17.5580  19.0058  19.2589

          k = 0.1250 0.3608 0.0000 (  4016 PWs)   bands (ev):

   -10.0865  -9.8161  -2.1245  -2.0081   0.1880   0.2595   1.3175   3.1364
    11.8064  12.5338  13.8070  15.8799  16.2477  18.8430  19.7744  20.4407

          k = 0.1250 0.3608 0.0917 (  4015 PWs)   bands (ev):

   -10.0488  -9.8578  -2.1077  -2.0257   0.1982   0.2489   1.5475   2.8221
    11.8954  12.4158  14.4701  15.9240  16.2121  17.9628  19.8858  20.3430

          k = 0.1250 0.3608-0.1835 (  4006 PWs)   bands (ev):

    -9.9553  -9.9552  -2.0669  -2.0669   0.2232   0.2233   2.1444   2.1444
    12.1438  12.1438  15.8765  15.8766  16.3241  16.3241  20.1121  20.1122

          k = 0.1250 0.3608-0.0917 (  4015 PWs)   bands (ev):

   -10.0488  -9.8578  -2.1077  -2.0257   0.1982   0.2489   1.5475   2.8221
    11.8954  12.4158  14.4701  15.9240  16.2121  17.9628  19.8858  20.3430

          k = 0.1250 0.4090 0.0000 (  4014 PWs)   bands (ev):

    -9.4554  -9.1976  -3.1598  -3.0217  -0.1566  -0.0783   2.0615   3.7783
    10.6665  11.5181  14.5984  15.7163  16.1239  19.1043  20.3205  21.6504

          k = 0.1250 0.4090 0.0917 (  4005 PWs)   bands (ev):

    -9.4194  -9.2372  -3.1402  -3.0424  -0.1451  -0.0897   2.2816   3.4866
    10.7677  11.3751  15.2078  15.7677  16.0900  18.3557  20.4896  21.2813

          k = 0.1250 0.4090-0.1835 (  4010 PWs)   bands (ev):

    -9.3301  -9.3301  -3.0919  -3.0918  -0.1176  -0.1175   2.8491   2.8491
    11.0525  11.0525  15.8686  15.8687  16.8037  16.8037  20.8724  20.8725

          k = 0.1250 0.4090-0.0917 (  4005 PWs)   bands (ev):

    -9.4194  -9.2372  -3.1402  -3.0424  -0.1451  -0.0897   2.2816   3.4866
    10.7677  11.3751  15.2078  15.7677  16.0900  18.3557  20.4896  21.2813

          k = 0.1250 0.4571 0.0000 (  3998 PWs)   bands (ev):

    -8.7561  -8.5129  -4.1797  -4.0225  -0.4147  -0.3323   2.8570   4.4164
     9.6048  10.5320  15.4459  15.6030  16.0199  19.3316  20.2066  20.8780

          k = 0.1250 0.4571 0.0917 (  4002 PWs)   bands (ev):

    -8.7221  -8.5501  -4.1576  -4.0464  -0.4027  -0.3445   3.0624   4.1605
     9.7048  10.3668  15.6214  15.8545  16.1576  18.6887  20.4051  21.2059

          k = 0.1250 0.4571-0.1835 (  4000 PWs)   bands (ev):

    -8.6377  -8.6376  -4.1028  -4.1028  -0.3736  -0.3735   3.5863   3.5864
    10.0052  10.0052  15.7635  15.7636  17.4113  17.4113  20.9363  20.9363

          k = 0.1250 0.4571-0.0917 (  4002 PWs)   bands (ev):

    -8.7221  -8.5501  -4.1576  -4.0464  -0.4027  -0.3445   3.0624   4.1605
     9.7048  10.3668  15.6214  15.8545  16.1576  18.6887  20.4051  21.2059

          k = 0.1250 0.5052 0.0000 (  3999 PWs)   bands (ev):

    -8.0008  -7.7758  -5.1531  -4.9825  -0.5875  -0.5024   3.6538   4.9351
     8.7588   9.6347  15.4695  15.9146  16.4624  19.4905  19.5333  20.4174

          k = 0.1250 0.5052 0.0917 (  3994 PWs)   bands (ev):

    -7.9690  -7.8100  -5.1291  -5.0087  -0.5749  -0.5149   3.8360   4.7466
     8.8252   9.4567  15.5289  15.8435  16.9484  18.8647  19.9508  20.8594

          k = 0.1250 0.5052-0.1835 (  4000 PWs)   bands (ev):

    -7.8908  -7.8908  -5.0700  -5.0700  -0.5450  -0.5450   4.2865   4.2865
     9.0882   9.0882  15.6783  15.6784  17.9814  17.9814  20.6345  20.6345

          k = 0.1250 0.5052-0.0917 (  3994 PWs)   bands (ev):

    -7.9690  -7.8100  -5.1291  -5.0087  -0.5749  -0.5149   3.8360   4.7466
     8.8252   9.4567  15.5289  15.8435  16.9484  18.8647  19.9508  20.8594

          k = 0.1250 0.5533 0.0000 (  4006 PWs)   bands (ev):

    -7.2484  -7.0704  -5.9843  -5.8343  -0.6737  -0.5880   4.2989   5.1325
     8.3583   8.9727  15.4201  15.8790  17.4699  18.5132  19.7178  20.1006

          k = 0.1250 0.5533 0.0917 (  3997 PWs)   bands (ev):

    -7.2221  -7.0960  -5.9651  -5.8586  -0.6613  -0.6005   4.4449   5.0491
     8.3477   8.8014  15.4792  15.8059  17.8025  18.5957  19.6678  20.5866

          k = 0.1250 0.5533-0.1835 (  3998 PWs)   bands (ev):

    -7.1587  -7.1586  -5.9145  -5.9144  -0.6309  -0.6308   4.7766   4.7767
     8.4863   8.4864  15.6329  15.6330  18.3692  18.3692  20.3771  20.3772

          k = 0.1250 0.5533-0.0917 (  3997 PWs)   bands (ev):

    -7.2221  -7.0960  -5.9651  -5.8586  -0.6613  -0.6005   4.4449   5.0491
     8.3477   8.8014  15.4792  15.8059  17.8025  18.5957  19.6678  20.5866

          k = 0.1250 0.6014 0.0000 (  4006 PWs)   bands (ev):

    -7.2484  -7.0704  -5.9843  -5.8343  -0.6737  -0.5880   4.2989   5.1325
     8.3583   8.9727  15.4201  15.8790  17.4699  18.5132  19.7178  20.1006

          k = 0.1250 0.6014 0.0917 (  3997 PWs)   bands (ev):

    -7.2221  -7.0960  -5.9651  -5.8586  -0.6613  -0.6005   4.4449   5.0491
     8.3477   8.8014  15.4792  15.8059  17.8025  18.5957  19.6678  20.5866

          k = 0.1250 0.6014-0.1835 (  3998 PWs)   bands (ev):

    -7.1587  -7.1586  -5.9145  -5.9144  -0.6309  -0.6308   4.7766   4.7767
     8.4863   8.4864  15.6329  15.6330  18.3692  18.3692  20.3771  20.3772

          k = 0.1250 0.6014-0.0917 (  3997 PWs)   bands (ev):

    -7.2221  -7.0960  -5.9651  -5.8586  -0.6613  -0.6005   4.4449   5.0491
[...]
    12.0351  15.2884  15.4157  16.2515  16.6838  16.9433  17.1802  17.2261

          k =-0.0417 0.1684-0.1835 (  4024 PWs)   bands (ev):

   -11.9504 -11.9503  -0.2226  -0.2225   2.0261   2.0261   2.8702   2.8702
    13.9217  13.9217  15.3791  15.3792  16.8092  16.8092  17.2042  17.2043

          k =-0.0417 0.1684-0.0917 (  4025 PWs)   bands (ev):

   -12.0574 -11.8379  -0.8844   0.5417   2.0074   2.0450   2.8568   2.8838
    12.0351  15.2884  15.4157  16.2515  16.6838  16.9433  17.1802  17.2261

          k =-0.0417 0.2165 0.0000 (  4025 PWs)   bands (ev):

   -11.7744 -11.4703  -0.7355   1.0421   1.1150   1.2753   2.3859   2.4319
    11.6885  15.1570  15.3631  15.6089  16.0708  17.8449  18.2013  18.2849

          k =-0.0417 0.2165 0.0917 (  4024 PWs)   bands (ev):

   -11.7324 -11.5175  -0.4856   0.9195   1.0533   1.1042   2.3927   2.4249
    12.4262  15.1567  15.3168  15.6902  15.9940  16.6530  18.2153  18.2734

          k =-0.0417 0.2165-0.1835 (  4020 PWs)   bands (ev):

   -11.6276 -11.6275   0.1673   0.1673   1.0786   1.0787   2.4087   2.4087
    14.2586  14.2586  15.2643  15.2643  15.9075  15.9075  18.2451  18.2451

          k =-0.0417 0.2165-0.0917 (  4024 PWs)   bands (ev):

   -11.7324 -11.5175  -0.4856   0.9195   1.0533   1.1042   2.3927   2.4249
    12.4262  15.1567  15.3168  15.6902  15.9940  16.6530  18.2153  18.2734

          k =-0.0417 0.2646 0.0000 (  4027 PWs)   bands (ev):

   -11.3689 -11.0729  -0.2374  -0.0053   0.0867   1.7333   1.9250   1.9768
    12.1939  14.4698  14.9671  15.0675  15.2255  18.1928  19.3565  19.4850

          k =-0.0417 0.2646 0.0917 (  4018 PWs)   bands (ev):

   -11.3279 -11.1188   0.0032   0.0115   0.0749   1.3869   1.9327   1.9689
    12.9049  14.5490  14.9095  15.0120  15.2540  17.0300  19.3799  19.4693

          k =-0.0417 0.2646-0.1835 (  4016 PWs)   bands (ev):

   -11.2258 -11.2257   0.0404   0.0404   0.6498   0.6499   1.9507   1.9507
    14.4730  14.4730  14.8782  14.8782  15.3014  15.3014  19.4273  19.4273

          k =-0.0417 0.2646-0.0917 (  4018 PWs)   bands (ev):

   -11.3279 -11.1188   0.0032   0.0115   0.0749   1.3869   1.9327   1.9689
    12.9049  14.5490  14.9095  15.0120  15.2540  17.0300  19.3799  19.4693

          k =-0.0417 0.3127 0.0000 (  4026 PWs)   bands (ev):

   -10.8849 -10.5986  -1.0975  -0.9860   0.3522   1.4964   1.5520   2.2693
    12.7975  13.2479  13.9976  14.7574  15.0614  18.5881  20.5056  20.7790

          k =-0.0417 0.3127 0.0917 (  4016 PWs)   bands (ev):

   -10.8451 -10.6428  -1.0811  -1.0025   0.5925   1.5047   1.5435   1.9340
    13.2085  13.6323  13.8636  14.7992  15.0467  17.4885  20.5609  20.7497

          k =-0.0417 0.3127-0.1835 (  4000 PWs)   bands (ev):

   -10.7463 -10.7462  -1.0418  -1.0418   1.2179   1.2180   1.5242   1.5243
    13.5447  13.5447  14.8306  14.8306  15.4808  15.4808  20.6665  20.6665

          k =-0.0417 0.3127-0.0917 (  4016 PWs)   bands (ev):

   -10.8451 -10.6428  -1.0811  -1.0025   0.5925   1.5047   1.5435   1.9340
    13.2085  13.6323  13.8636  14.7992  15.0467  17.4885  20.5609  20.7497

          k =-0.0417 0.3608 0.0000 (  4015 PWs)   bands (ev):

   -10.3242 -10.0491  -2.2004  -2.0704   1.0265   1.1189   1.1773   2.8707
    11.9988  12.8966  13.4945  14.5571  14.8991  19.0165  21.2914  22.1077

          k =-0.0417 0.3608 0.0917 (  4021 PWs)   bands (ev):

   -10.2859 -10.0916  -2.1820  -2.0900   1.1276   1.1684   1.2593   2.5512
    12.0868  12.7332  14.1810  14.6071  14.8941  18.0011  21.4480  22.0226

          k =-0.0417 0.3608-0.1835 (  4014 PWs)   bands (ev):

   -10.1908 -10.1908  -2.1365  -2.1364   1.1479   1.1480   1.8638   1.8638
    12.3812  12.3812  14.6910  14.6910  16.0329  16.0329  21.7658  21.7659

          k =-0.0417 0.3608-0.0917 (  4021 PWs)   bands (ev):

   -10.2859 -10.0916  -2.1820  -2.0900   1.1276   1.1684   1.2593   2.5512
    12.0868  12.7332  14.1810  14.6071  14.8941  18.0011  21.4480  22.0226

          k =-0.0417 0.4090 0.0000 (  3993 PWs)   bands (ev):

    -9.6897  -9.4271  -3.2899  -3.1418   0.8055   0.8655   1.7740   3.5138
    10.7804  11.7990  14.2314  14.4179  14.7738  19.4620  21.2163  23.4024

          k =-0.0417 0.4090 0.0917 (  4012 PWs)   bands (ev):

    -9.6531  -9.4675  -3.2689  -3.1643   0.8142   0.8561   1.9964   3.2174
    10.8871  11.6121  14.4116  14.6173  15.0854  18.5480  21.4929  22.7772

          k =-0.0417 0.4090-0.1835 (  4018 PWs)   bands (ev):

    -9.5622  -9.5622  -3.2175  -3.2175   0.8351   0.8352   2.5711   2.5711
    11.2141  11.2141  14.5389  14.5389  16.7033  16.7033  22.1014  22.1014

          k =-0.0417 0.4090-0.0917 (  4012 PWs)   bands (ev):

    -9.6531  -9.4675  -3.2689  -3.1643   0.8142   0.8561   1.9964   3.2174
    10.8871  11.6121  14.4116  14.6173  15.0854  18.5480  21.4929  22.7772

          k =-0.0417 0.4571 0.0000 (  3993 PWs)   bands (ev):

    -8.9859  -8.7377  -4.3455  -4.1808   0.5641   0.6253   2.5708   4.1463
     9.6689  10.7476  14.2244  14.5910  15.2361  19.9059  20.4711  24.5821

          k =-0.0417 0.4571 0.0917 (  4006 PWs)   bands (ev):

    -8.9511  -8.7758  -4.3224  -4.2058   0.5729   0.6156   2.7783   3.8883
     9.7733  10.5404  14.2807  14.5423  15.8793  19.0935  20.8703  22.3576

          k =-0.0417 0.4571-0.1835 (  4012 PWs)   bands (ev):

    -8.8651  -8.8651  -4.2650  -4.2649   0.5940   0.5941   3.3080   3.3080
    10.1099  10.1099  14.4125  14.4125  17.4394  17.4394  21.6372  21.6372

          k =-0.0417 0.4571-0.0917 (  4006 PWs)   bands (ev):

    -8.9511  -8.7758  -4.3224  -4.2058   0.5729   0.6156   2.7783   3.8883
     9.7733  10.5404  14.2807  14.5423  15.8793  19.0935  20.8703  22.3576

          k =-0.0417 0.5052 0.0000 (  4007 PWs)   bands (ev):

    -8.2239  -7.9940  -5.3438  -5.1665   0.4002   0.4620   3.3649   4.6501
     8.7988   9.8126  14.1307  14.5225  16.1913  19.4422  20.3264  25.5541

          k =-0.0417 0.5052 0.0917 (  3999 PWs)   bands (ev):

    -8.1915  -8.0290  -5.3187  -5.1934   0.4093   0.4527   3.5480   4.4623
     8.8682   9.5944  14.1866  14.4645  16.7941  19.4426  20.1528  21.8085

          k =-0.0417 0.5052-0.1835 (  3996 PWs)   bands (ev):

    -8.1116  -8.1115  -5.2572  -5.2571   0.4309   0.4310   4.0013   4.0013
     9.1620   9.1620  14.3237  14.3237  18.2037  18.2037  20.9469  20.9469

          k =-0.0417 0.5052-0.0917 (  3999 PWs)   bands (ev):

    -8.1915  -8.0290  -5.3187  -5.1934   0.4093   0.4527   3.5480   4.4623
     8.8682   9.5944  14.1866  14.4645  16.7941  19.4426  20.1528  21.8085

          k =-0.0417-0.6014 0.0000 (  3986 PWs)   bands (ev):

    -7.4612  -7.2784  -6.1930  -6.0370   0.3179   0.3798   4.0003   4.8364
     8.3738   9.1585  14.0820  14.4826  17.2336  18.3344  20.6599  21.6186

          k =-0.0417-0.6014 0.0917 (  4003 PWs)   bands (ev):

    -7.4342  -7.3047  -6.1731  -6.0626   0.3269   0.3703   4.1456   4.7515
     8.3738   8.9424  14.1382  14.4228  17.7691  18.7626  20.2746  21.3622

          k =-0.0417-0.6014-0.1835 (  4000 PWs)   bands (ev):

    -7.3691  -7.3690  -6.1206  -6.1205   0.3484   0.3485   4.4779   4.4779
     8.5551   8.5551  14.2780  14.2780  18.8834  18.8834  20.2901  20.2901

          k =-0.0417-0.6014-0.0917 (  4003 PWs)   bands (ev):

    -7.4342  -7.3047  -6.1731  -6.0626   0.3269   0.3703   4.1456   4.7515
     8.3738   8.9424  14.1382  14.4228  17.7691  18.7626  20.2746  21.3622

          k =-0.0417-0.5533 0.0000 (  3986 PWs)   bands (ev):

    -7.4612  -7.2784  -6.1930  -6.0370   0.3179   0.3798   4.0003   4.8364
     8.3738   9.1585  14.0820  14.4826  17.2336  18.3344  20.6599  21.6186

          k =-0.0417-0.5533 0.0917 (  4003 PWs)   bands (ev):

    -7.4342  -7.3047  -6.1731  -6.0626   0.3269   0.3703   4.1456   4.7515
     8.3738   8.9424  14.1382  14.4228  17.7691  18.7626  20.2746  21.3622

          k =-0.0417-0.5533-0.1835 (  4000 PWs)   bands (ev):

    -7.3691  -7.3690  -6.1206  -6.1205   0.3484   0.3485   4.4779   4.4779
     8.5551   8.5551  14.2780  14.2780  18.8834  18.8834  20.2901  20.2901

          k =-0.0417-0.5533-0.0917 (  4003 PWs)   bands (ev):

    -7.4342  -7.3047  -6.1731  -6.0626   0.3269   0.3703   4.1456   4.7515
     8.3738   8.9424  14.1382  14.4228  17.7691  18.7626  20.2746  21.3622

          k =-0.0417-0.5052 0.0000 (  4007 PWs)   bands (ev):

    -8.2239  -7.9940  -5.3438  -5.1665   0.4002   0.4620   3.3649   4.6501
     8.7988   9.8126  14.1307  14.5225  16.1913  19.4422  20.3264  25.5541

          k =-0.0417-0.5052 0.0917 (  3999 PWs)   bands (ev):

    -8.1915  -8.0290  -5.3187  -5.1934   0.4093   0.4527   3.5480   4.4623
     8.8682   9.5944  14.1866  14.4645  16.7941  19.4426  20.1528  21.8085

          k =-0.0417-0.5052-0.1835 (  3996 PWs)   bands (ev):

    -8.1116  -8.1115  -5.2572  -5.2571   0.4309   0.4310   4.0013   4.0013
     9.1620   9.1620  14.3237  14.3237  18.2037  18.2037  20.9469  20.9469

          k =-0.0417-0.5052-0.0917 (  3999 PWs)   bands (ev):

    -8.1915  -8.0290  -5.3187  -5.1934   0.4093   0.4527   3.5480   4.4623
     8.8682   9.5944  14.1866  14.4645  16.7941  19.4426  20.1528  21.8085

          k =-0.0417-0.4571 0.0000 (  3993 PWs)   bands (ev):

    -8.9859  -8.7377  -4.3455  -4.1808   0.5641   0.6253   2.5708   4.1463
     9.6689  10.7476  14.2244  14.5910  15.2361  19.9059  20.4711  24.5821

          k =-0.0417-0.4571 0.0917 (  4006 PWs)   bands (ev):

    -8.9511  -8.7758  -4.3224  -4.2058   0.5729   0.6156   2.7783   3.8883
     9.7733  10.5404  14.2807  14.5423  15.8793  19.0935  20.8703  22.3576

          k =-0.0417-0.4571-0.1835 (  4012 PWs)   bands (ev):

    -8.8651  -8.8651  -4.2650  -4.2649   0.5940   0.5941   3.3080   3.3080
    10.1099  10.1099  14.4125  14.4125  17.4394  17.4394  21.6372  21.6372

          k =-0.0417-0.4571-0.0917 (  4006 PWs)   bands (ev):

    -8.9511  -8.7758  -4.3224  -4.2058   0.5729   0.6156   2.7783   3.8883
     9.7733  10.5404  14.2807  14.5423  15.8793  19.0935  20.8703  22.3576

          k =-0.0417-0.4090 0.0000 (  3993 PWs)   bands (ev):

    -9.6897  -9.4271  -3.2899  -3.1418   0.8055   0.8655   1.7740   3.5138
    10.7804  11.7990  14.2314  14.4179  14.7738  19.4620  21.2163  23.4024

          k =-0.0417-0.4090 0.0917 (  4012 PWs)   bands (ev):

    -9.6531  -9.4675  -3.2689  -3.1643   0.8142   0.8561   1.9964   3.2174
    10.8871  11.6121  14.4116  14.6173  15.0854  18.5480  21.4929  22.7772

          k =-0.0417-0.4090-0.1835 (  4018 PWs)   bands (ev):

    -9.5622  -9.5622  -3.2175  -3.2175   0.8351   0.8352   2.5711   2.5711
    11.2141  11.2141  14.5389  14.5389  16.7033  16.7033  22.1014  22.1014

          k =-0.0417-0.4090-0.0917 (  4012 PWs)   bands (ev):

    -9.6531  -9.4675  -3.2689  -3.1643   0.8142   0.8561   1.9964   3.2174
    10.8871  11.6121  14.4116  14.6173  15.0854  18.5480  21.4929  22.7772

          k =-0.0417-0.3608 0.0000 (  4015 PWs)   bands (ev):

   -10.3242 -10.0491  -2.2004  -2.0704   1.0265   1.1189   1.1773   2.8707
    11.9988  12.8966  13.4945  14.5571  14.8991  19.0165  21.2914  22.1077

          k =-0.0417-0.3608 0.0917 (  4021 PWs)   bands (ev):

   -10.2859 -10.0916  -2.1820  -2.0900   1.1276   1.1684   1.2593   2.5512
    12.0868  12.7332  14.1810  14.6071  14.8941  18.0011  21.4480  22.0226

          k =-0.0417-0.3608-0.1835 (  4014 PWs)   bands (ev):

   -10.1908 -10.1908  -2.1365  -2.1364   1.1479   1.1480   1.8638   1.8638
    12.3812  12.3812  14.6910  14.6910  16.0329  16.0329  21.7658  21.7659

          k =-0.0417-0.3608-0.0917 (  4021 PWs)   bands (ev):

   -10.2859 -10.0916  -2.1820  -2.0900   1.1276   1.1684   1.2593   2.5512
    12.0868  12.7332  14.1810  14.6071  14.8941  18.0011  21.4480  22.0226

          k =-0.0417-0.3127 0.0000 (  4026 PWs)   bands (ev):

   -10.8849 -10.5986  -1.0975  -0.9860   0.3522   1.4964   1.5520   2.2693
    12.7975  13.2479  13.9976  14.7574  15.0614  18.5881  20.5056  20.7790

          k =-0.0417-0.3127 0.0917 (  4016 PWs)   bands (ev):

   -10.8451 -10.6428  -1.0811  -1.0025   0.5925   1.5047   1.5435   1.9340
    13.2085  13.6323  13.8636  14.7992  15.0467  17.4885  20.5609  20.7497

          k =-0.0417-0.3127-0.1835 (  4000 PWs)   bands (ev):

   -10.7463 -10.7462  -1.0418  -1.0418   1.2179   1.2180   1.5242   1.5243
    13.5447  13.5447  14.8306  14.8306  15.4808  15.4808  20.6665  20.6665

          k =-0.0417-0.3127-0.0917 (  4016 PWs)   bands (ev):

   -10.8451 -10.6428  -1.0811  -1.0025   0.5925   1.5047   1.5435   1.9340
    13.2085  13.6323  13.8636  14.7992  15.0467  17.4885  20.5609  20.7497

          k =-0.0417-0.2646 0.0000 (  4027 PWs)   bands (ev):

   -11.3689 -11.0729  -0.2374  -0.0053   0.0867   1.7333   1.9250   1.9768
    12.1939  14.4698  14.9671  15.0675  15.2255  18.1928  19.3565  19.4850

          k =-0.0417-0.2646 0.0917 (  4018 PWs)   bands (ev):

   -11.3279 -11.1188   0.0032   0.0115   0.0749   1.3869   1.9327   1.9689
    12.9049  14.5490  14.9095  15.0120  15.2540  17.0300  19.3799  19.4693

          k =-0.0417-0.2646-0.1835 (  4016 PWs)   bands (ev):

   -11.2258 -11.2257   0.0404   0.0404   0.6498   0.6499   1.9507   1.9507
    14.4730  14.4730  14.8782  14.8782  15.3014  15.3014  19.4273  19.4273

          k =-0.0417-0.2646-0.0917 (  4018 PWs)   bands (ev):

   -11.3279 -11.1188   0.0032   0.0115   0.0749   1.3869   1.9327   1.9689
    12.9049  14.5490  14.9095  15.0120  15.2540  17.0300  19.3799  19.4693

          k =-0.0417-0.2165 0.0000 (  4025 PWs)   bands (ev):

   -11.7744 -11.4703  -0.7355   1.0421   1.1150   1.2753   2.3859   2.4319
    11.6885  15.1570  15.3631  15.6089  16.0708  17.8449  18.2013  18.2849

          k =-0.0417-0.2165 0.0917 (  4024 PWs)   bands (ev):

   -11.7324 -11.5175  -0.4856   0.9195   1.0533   1.1042   2.3927   2.4249
    12.4262  15.1567  15.3168  15.6902  15.9940  16.6530  18.2153  18.2734

          k =-0.0417-0.2165-0.1835 (  4020 PWs)   bands (ev):

   -11.6276 -11.6275   0.1673   0.1673   1.0786   1.0787   2.4087   2.4087
    14.2586  14.2586  15.2643  15.2643  15.9075  15.9075  18.2451  18.2451

          k =-0.0417-0.2165-0.0917 (  4024 PWs)   bands (ev):

   -11.7324 -11.5175  -0.4856   0.9195   1.0533   1.1042   2.3927   2.4249
    12.4262  15.1567  15.3168  15.6902  15.9940  16.6530  18.2153  18.2734

          k =-0.0417-0.1684 0.0000 (  4030 PWs)   bands (ev):

   -12.1003 -11.7895  -1.1376   0.9032   1.9993   2.0528   2.8512   2.8896
    11.2832  15.2905  15.4396  16.6083  16.9668  17.1681  17.2347  17.5594

          k =-0.0417-0.1684 0.0917 (  4025 PWs)   bands (ev):

   -12.0574 -11.8379  -0.8844   0.5417   2.0074   2.0450   2.8568   2.8838
    12.0351  15.2884  15.4157  16.2515  16.6838  16.9433  17.1802  17.2261

          k =-0.0417-0.1684-0.1835 (  4024 PWs)   bands (ev):

   -11.9504 -11.9503  -0.2226  -0.2225   2.0261   2.0261   2.8702   2.8702
    13.9217  13.9217  15.3791  15.3792  16.8092  16.8092  17.2042  17.2043

          k =-0.0417-0.1684-0.0917 (  4025 PWs)   bands (ev):

   -12.0574 -11.8379  -0.8844   0.5417   2.0074   2.0450   2.8568   2.8838
    12.0351  15.2884  15.4157  16.2515  16.6838  16.9433  17.1802  17.2261

          k =-0.0417-0.1203 0.0000 (  4021 PWs)   bands (ev):

   -12.3454 -12.0296  -1.4411   0.6212   2.8084   2.8436   3.2813   3.3098
    10.9792  15.3333  15.4339  16.3307  16.3898  17.2897  17.4524  17.7255

          k =-0.0417-0.1203 0.0917 (  4036 PWs)   bands (ev):

   -12.3019 -12.0788  -1.1857   0.2549   2.8137   2.8385   3.2852   3.3051
    11.7401  15.3258  15.4192  16.0230  16.3389  16.3801  17.4713  17.6793

          k =-0.0417-0.1203-0.1835 (  4026 PWs)   bands (ev):

   -12.1932 -12.1931  -0.5172  -0.5172   2.8265   2.8266   3.2947   3.2948
    13.6552  13.6552  15.3935  15.3936  16.3588  16.3589  17.5755  17.5755

          k =-0.0417-0.1203-0.0917 (  4036 PWs)   bands (ev):

   -12.3019 -12.0788  -1.1857   0.2549   2.8137   2.8385   3.2852   3.3051
    11.7401  15.3258  15.4192  16.0230  16.3389  16.3801  17.4713  17.6793

          k =-0.0417-0.0722 0.0000 (  4023 PWs)   bands (ev):

   -12.5092 -12.1901  -1.6443   0.4317   3.4018   3.4253   3.6194   3.6402
    10.7768  15.2910  15.3650  15.7391  15.7948  17.1650  18.0060  18.2592

          k =-0.0417-0.0722 0.0917 (  4037 PWs)   bands (ev):

   -12.4652 -12.2398  -1.3875   0.0626   3.4054   3.4222   3.6220   3.6369
    11.5433  15.2880  15.3545  15.7470  15.7859  15.8479  18.0368  18.2147

          k =-0.0417-0.0722-0.1835 (  4038 PWs)   bands (ev):

   -12.3554 -12.3554  -0.7148  -0.7148   3.4136   3.4137   3.6288   3.6289
    13.4751  13.4751  15.3328  15.3329  15.7659  15.7659  18.1214  18.1214

          k =-0.0417-0.0722-0.0917 (  4037 PWs)   bands (ev):

   -12.4652 -12.2398  -1.3875   0.0626   3.4054   3.4222   3.6220   3.6369
    11.5433  15.2880  15.3545  15.7470  15.7859  15.8479  18.0368  18.2147

     the Fermi energy is     6.9035 ev

!    total energy              =     -45.50452741 Ry
     Harris-Foulkes estimate   =     -45.50452731 Ry
     estimated scf accuracy    <       0.00000033 Ry

     The total energy is the sum of the following terms:

     one-electron contribution =     -11.08985473 Ry
     hartree contribution      =      13.30973991 Ry
     xc contribution           =     -13.87121477 Ry
     ewald contribution        =     -33.85317264 Ry
     smearing contrib. (-TS)   =      -0.00002519 Ry

     convergence has been achieved in   4 iterations

     Forces acting on atoms (Ry/au):

     atom   1 type  1   force =     0.00000000    0.00000000    0.00000000
     atom   2 type  1   force =     0.00000000    0.00000000    0.00000000
     atom   3 type  1   force =     0.00000000    0.00000000    0.00000000
     atom   4 type  1   force =     0.00000000    0.00000000    0.00000000

     Total force =     0.000000     Total SCF correction =     0.000000


     entering subroutine stress ...

          total   stress  (Ry/bohr**3)                   (kbar)     P=  -33.06
  -0.00022818   0.00000000   0.00000000        -33.57      0.00      0.00
   0.00000000  -0.00022818   0.00000000          0.00    -33.57      0.00
   0.00000000   0.00000000  -0.00021790          0.00      0.00    -32.05


     Writing output data file lda.save
 
     init_run     :     23.17s CPU     23.86s WALL (       1 calls)
     electrons    :    319.47s CPU    324.26s WALL (       1 calls)
     forces       :      0.40s CPU      0.51s WALL (       1 calls)
     stress       :      0.59s CPU      0.69s WALL (       1 calls)

     Called by init_run:
     wfcinit      :     23.00s CPU     23.42s WALL (       1 calls)
     potinit      :      0.04s CPU      0.06s WALL (       1 calls)

     Called by electrons:
     c_bands      :    277.60s CPU    281.86s WALL (       4 calls)
     sum_band     :     41.82s CPU     42.28s WALL (       4 calls)
     v_of_rho     :      0.00s CPU      0.01s WALL (       5 calls)
     mix_rho      :      0.01s CPU      0.01s WALL (       4 calls)

     Called by c_bands:
     init_us_2    :      0.50s CPU      0.47s WALL (   25344 calls)
     cegterg      :    277.11s CPU    280.33s WALL (    9216 calls)

     Called by *egterg:
     h_psi        :    247.73s CPU    249.22s WALL (   40871 calls)
     g_psi        :      1.29s CPU      1.25s WALL (   29351 calls)
     cdiaghg      :     28.66s CPU     28.77s WALL (   38567 calls)

     Called by h_psi:
     add_vuspsi   :      0.57s CPU      0.57s WALL (   40871 calls)

     General routines
     calbec       :      6.81s CPU      6.73s WALL (   45479 calls)
     cft3s        :    275.73s CPU    277.43s WALL ( 1018760 calls)
     davcio       :      0.20s CPU      1.77s WALL (   36864 calls)
 
     Parallel routines
     fft_scatter  :    200.94s CPU    201.21s WALL ( 1018760 calls)
 
     PWSCF        :  6m14.62s CPU time,     8m 3.39s WALL time

 
   This run was terminated on:  15:20:49  20Jul2011            

=------------------------------------------------------------------------------=
   JOB DONE.
=------------------------------------------------------------------------------=
