  Input file(s): optm.xml 

=====================================================
                    QMCPACK 1.0.0 

  (c) Copyright 2003-  QMCPACK developers            

  Subversion branch 6925
  Last modified     2016-05-18 12:43:30 -0400 (Wed, 18 May 2016)
=====================================================
  Global options 
  async_swap=0 : using blocking send/recv for walker swaps 

  MPI Nodes            = 320
  MPI Nodes per group  = 320
  MPI Group ID         = 0
  OMP_NUM_THREADS      = 1

  Input XML = optm.xml

  Project = jopt-h2o
  date    = 2016-05-18 23:18:29 EDT
  host    = nid17235
  user    = auser

  DO NOT READ DENSITY
  Offset for the random number seeds based on time 133
  Random number offset = 133  seeds = 761-3217
  Creating e particleset
  All the species have the same mass 1
Particles are grouped. Safe to use groups 
e
  Creating ion0 particleset
  All the species have the same mass 1
Particles are grouped. Safe to use groups 
ion0
 Adding WavefunctionFactory for psi0
Using MolecularBasisBuilder<NGOBuilder>
<input node="basisset"  name="LCAOBSet"/>
  Distance table for AA: source/target = e
    PBC=open Orthorhombic=NA
 using Cartesian coordinates with 
  ... ParticleSet::addTable Create Table #0 e_e
  Distance table for AB: source = ion0 target = e
    PBC=open Orthorhombic=NA
 using Cartesian coordinates 
  ... ParticleSet::addTable Create Table #1 ion0_e
<input node="atomicBasisSet"  name="Gaussian-G2"  angular="cartesian"  type="Gaussian"  elementType="O"  normalized="no"/>
  AO BasisSet for O
   Angular momentum expanded in cartesian functions x^lx y^ly z^lz according to Gamess
Using log grid with default values: ri = 1e-06 rf = 100 npts = 1001
   R(n,l,m,s) 0 0 0 0
Expanding Ylm (angular function) according to Gamess using cartesian gaussians
    Gaussian exponent = 0.125346
              contraction=0.055741 nomralized contraction = 0.0296669
    Gaussian exponent = 0.268022
              contraction=0.304848 nomralized contraction = 0.286897
    Gaussian exponent = 0.573098
              contraction=0.453752 nomralized contraction = 0.755101
    Gaussian exponent = 1.22543
              contraction=0.295926 nomralized contraction = 0.870791
    Gaussian exponent = 2.62028
              contraction=0.019567 nomralized contraction = 0.101812
    Gaussian exponent = 5.60282
              contraction=-0.128627 nomralized contraction = -1.18345
    Gaussian exponent = 11.9802
              contraction=0.012024 nomralized contraction = 0.19562
    Gaussian exponent = 25.6168
              contraction=0.000407 nomralized contraction = 0.0117085
    Gaussian exponent = 54.7752
              contraction=-7.59999e-05 nomralized contraction = -0.00386604
Adding 1 cartesian gaussian orbitals for l= 0
   R(n,l,m,s) 1 0 0 0
Expanding Ylm (angular function) according to Gamess using cartesian gaussians
    Gaussian exponent = 1.68663
              contraction=1 nomralized contraction = 3.73922
	Setting GridManager of 1 radial orbital to false
Adding 1 cartesian gaussian orbitals for l= 0
   R(n,l,m,s) 2 0 0 0
Expanding Ylm (angular function) according to Gamess using cartesian gaussians
    Gaussian exponent = 0.237997
              contraction=1 nomralized contraction = 0.860882
	Setting GridManager of 2 radial orbital to false
Adding 1 cartesian gaussian orbitals for l= 0
   R(n,l,m,s) 3 1 0 0
Expanding Ylm (angular function) according to Gamess using cartesian gaussians
    Gaussian exponent = 0.083598
              contraction=0.044958 nomralized contraction = 0.00589571
    Gaussian exponent = 0.167017
              contraction=0.150175 nomralized contraction = 0.046777
    Gaussian exponent = 0.333673
              contraction=0.255999 nomralized contraction = 0.189397
    Gaussian exponent = 0.666627
              contraction=0.281879 nomralized contraction = 0.495337
    Gaussian exponent = 1.33182
              contraction=0.242835 nomralized contraction = 1.01356
    Gaussian exponent = 2.66076
              contraction=0.161134 nomralized contraction = 1.59746
    Gaussian exponent = 5.31578
              contraction=0.082308 nomralized contraction = 1.93814
    Gaussian exponent = 10.6201
              contraction=0.039899 nomralized contraction = 2.23155
    Gaussian exponent = 21.2173
              contraction=0.004679 nomralized contraction = 0.621585
	Setting GridManager of 3 radial orbital to false
Adding 3 cartesian gaussian orbitals for l= 1
   R(n,l,m,s) 4 1 0 0
Expanding Ylm (angular function) according to Gamess using cartesian gaussians
    Gaussian exponent = 0.184696
              contraction=1 nomralized contraction = 0.353229
	Setting GridManager of 4 radial orbital to false
Adding 3 cartesian gaussian orbitals for l= 1
   R(n,l,m,s) 5 1 0 0
Expanding Ylm (angular function) according to Gamess using cartesian gaussians
    Gaussian exponent = 0.600621
              contraction=1 nomralized contraction = 1.54254
	Setting GridManager of 5 radial orbital to false
Adding 3 cartesian gaussian orbitals for l= 1
   R(n,l,m,s) 6 2 0 0
Expanding Ylm (angular function) according to Gamess using cartesian gaussians
    Gaussian exponent = 0.66934
              contraction=1 nomralized contraction = 1.29244
	Setting GridManager of 6 radial orbital to false
Adding 6 cartesian gaussian orbitals for l= 2
   R(n,l,m,s) 7 2 0 0
Expanding Ylm (angular function) according to Gamess using cartesian gaussians
    Gaussian exponent = 2.40428
              contraction=1 nomralized contraction = 12.113
	Setting GridManager of 7 radial orbital to false
Adding 6 cartesian gaussian orbitals for l= 2
   R(n,l,m,s) 8 3 0 0
Expanding Ylm (angular function) according to Gamess using cartesian gaussians
    Gaussian exponent = 1.4231
              contraction=1 nomralized contraction = 4.36308
	Setting GridManager of 8 radial orbital to false
Adding 10 cartesian gaussian orbitals for l= 3
   Maximu Angular Momentum   = 3
   Number of Radial functors = 9
   Basis size                = 34

<input node="atomicBasisSet"  name="Gaussian-G2"  angular="cartesian"  type="Gaussian"  elementType="H"  normalized="no"/>
  AO BasisSet for H
   Angular momentum expanded in cartesian functions x^lx y^ly z^lz according to Gamess
Using log grid with default values: ri = 1e-06 rf = 100 npts = 1001
   R(n,l,m,s) 0 0 0 0
Expanding Ylm (angular function) according to Gamess using cartesian gaussians
    Gaussian exponent = 8.70089
              contraction=0.0627182 nomralized contraction = 0.802752
    Gaussian exponent = 1.95552
              contraction=0.261959 nomralized contraction = 1.09445
    Gaussian exponent = 0.559044
              contraction=0.75701 nomralized contraction = 1.23652
Adding 1 cartesian gaussian orbitals for l= 0
   R(n,l,m,s) 1 0 0 0
Expanding Ylm (angular function) according to Gamess using cartesian gaussians
    Gaussian exponent = 0.164925
              contraction=1 nomralized contraction = 0.653854
	Setting GridManager of 1 radial orbital to false
Adding 1 cartesian gaussian orbitals for l= 0
   R(n,l,m,s) 2 0 0 0
Expanding Ylm (angular function) according to Gamess using cartesian gaussians
    Gaussian exponent = 0.0320625
              contraction=1 nomralized contraction = 0.191431
	Setting GridManager of 2 radial orbital to false
Adding 1 cartesian gaussian orbitals for l= 0
   R(n,l,m,s) 3 1 0 0
Expanding Ylm (angular function) according to Gamess using cartesian gaussians
    Gaussian exponent = 0.790074
              contraction=1 nomralized contraction = 2.17305
	Setting GridManager of 3 radial orbital to false
Adding 3 cartesian gaussian orbitals for l= 1
   R(n,l,m,s) 4 1 0 0
Expanding Ylm (angular function) according to Gamess using cartesian gaussians
    Gaussian exponent = 0.152351
              contraction=1 nomralized contraction = 0.277679
	Setting GridManager of 4 radial orbital to false
Adding 3 cartesian gaussian orbitals for l= 1
   R(n,l,m,s) 5 2 0 0
Expanding Ylm (angular function) according to Gamess using cartesian gaussians
    Gaussian exponent = 0.883818
              contraction=1 nomralized contraction = 2.10215
	Setting GridManager of 5 radial orbital to false
Adding 6 cartesian gaussian orbitals for l= 2
   Maximu Angular Momentum   = 2
   Number of Radial functors = 6
   Basis size                = 15

Built BasisSetBuilder "LCAOBSet" of type molecularorbital
Creating SPOSet in SlaterDetBuilder::put(xmlNodePtr cur).
spo_name = spo-up
 Building SPOset spo-up with LCAOBSet basis set.
Creating LCOrbitalSet with the input coefficients
SPO coefficients are applied by a single dgemm (BLAS3)
Creating SPOSet in SlaterDetBuilder::put(xmlNodePtr cur).
spo_name = spo-dn
 Building SPOset spo-dn with LCAOBSet basis set.
Creating LCOrbitalSet with the input coefficients
SPO coefficients are applied by a single dgemm (BLAS3)
Using Bryan's algorithm for MultiSlaterDeterminant expansion. 
Creating base determinant (up) for MSD expansion. 
Creating base determinant (down) for MSD expansion. 
Found determinant list. 
Reading CSFs.
Found 582 terms in the MSD expansion.
Norm of ci vector (sum of ci^2): 0.987927
Norm of qchem ci vector (sum of qchem_ci^2): 0.987927
Found 124 unique up determinants.
Found 124 unique down determinants.
Number of terms in pairs array: 71
Number of terms in pairs array: 71
CI coefficients are optimizable. 
  FermionWF=MultiSlaterDeterminantFast
  BsplineJastrowBuilder adds a functor with cusp = -0.25
 size = 10 parameters 
 cusp = -0.25
 rcut = 10
Parameter     Name      Value
uu_0 0 1 1  ON 0
uu_1 0 1 1  ON 1
uu_2 0 1 1  ON 2
uu_3 0 1 1  ON 3
uu_4 0 1 1  ON 4
uu_5 0 1 1  ON 5
uu_6 0 1 1  ON 6
uu_7 0 1 1  ON 7
uu_8 0 1 1  ON 8
uu_9 0 1 1  ON 9
  BsplineJastrowBuilder adds a functor with cusp = -0.5
 size = 10 parameters 
 cusp = -0.5
 rcut = 10
Parameter     Name      Value
ud_0 0 1 1  ON 0
ud_1 0 1 1  ON 1
ud_2 0 1 1  ON 2
ud_3 0 1 1  ON 3
ud_4 0 1 1  ON 4
ud_5 0 1 1  ON 5
ud_6 0 1 1  ON 6
ud_7 0 1 1  ON 7
ud_8 0 1 1  ON 8
ud_9 0 1 1  ON 9

  Using BsplineBuilder for one-body jastrow with B-spline functions
  ... ParticleSet::addTable Reuse Table #1 ion0_e
  ... ParticleSet::addTable Reuse Table #1 ion0_e
 size = 10 parameters 
 cusp = 0
 rcut = 10
Parameter     Name      Value
eO_0 0 1 1  ON 0
eO_1 0 1 1  ON 1
eO_2 0 1 1  ON 2
eO_3 0 1 1  ON 3
eO_4 0 1 1  ON 4
eO_5 0 1 1  ON 5
eO_6 0 1 1  ON 6
eO_7 0 1 1  ON 7
eO_8 0 1 1  ON 8
eO_9 0 1 1  ON 9
 size = 10 parameters 
 cusp = 0
 rcut = 10
Parameter     Name      Value
eH_0 0 1 1  ON 0
eH_1 0 1 1  ON 1
eH_2 0 1 1  ON 2
eH_3 0 1 1  ON 3
eH_4 0 1 1  ON 4
eH_5 0 1 1  ON 5
eH_6 0 1 1  ON 6
eH_7 0 1 1  ON 7
eH_8 0 1 1  ON 8
eH_9 0 1 1  ON 9
  ... ParticleSet::addTable Reuse Table #1 ion0_e
Expected 26 parameters, but found 0 in PolynomialFunctor3D.
Parameter     Name      Value
uuO_0 0 1 1  ON 0
uuO_1 0 1 1  ON 1
uuO_2 0 1 1  ON 2
uuO_3 0 1 1  ON 3
uuO_4 0 1 1  ON 4
uuO_5 0 1 1  ON 5
uuO_6 0 1 1  ON 6
uuO_7 0 1 1  ON 7
uuO_8 0 1 1  ON 8
uuO_9 0 1 1  ON 9
uuO_10 0 1 1  ON 10
uuO_11 0 1 1  ON 11
uuO_12 0 1 1  ON 12
uuO_13 0 1 1  ON 13
uuO_14 0 1 1  ON 14
uuO_15 0 1 1  ON 15
uuO_16 0 1 1  ON 16
uuO_17 0 1 1  ON 17
uuO_18 0 1 1  ON 18
uuO_19 0 1 1  ON 19
uuO_20 0 1 1  ON 20
uuO_21 0 1 1  ON 21
uuO_22 0 1 1  ON 22
uuO_23 0 1 1  ON 23
uuO_24 0 1 1  ON 24
uuO_25 0 1 1  ON 25
Expected 26 parameters, but found 0 in PolynomialFunctor3D.
Parameter     Name      Value
udO_0 0 1 1  ON 0
udO_1 0 1 1  ON 1
udO_2 0 1 1  ON 2
udO_3 0 1 1  ON 3
udO_4 0 1 1  ON 4
udO_5 0 1 1  ON 5
udO_6 0 1 1  ON 6
udO_7 0 1 1  ON 7
udO_8 0 1 1  ON 8
udO_9 0 1 1  ON 9
udO_10 0 1 1  ON 10
udO_11 0 1 1  ON 11
udO_12 0 1 1  ON 12
udO_13 0 1 1  ON 13
udO_14 0 1 1  ON 14
udO_15 0 1 1  ON 15
udO_16 0 1 1  ON 16
udO_17 0 1 1  ON 17
udO_18 0 1 1  ON 18
udO_19 0 1 1  ON 19
udO_20 0 1 1  ON 20
udO_21 0 1 1  ON 21
udO_22 0 1 1  ON 22
udO_23 0 1 1  ON 23
udO_24 0 1 1  ON 24
udO_25 0 1 1  ON 25
Expected 26 parameters, but found 0 in PolynomialFunctor3D.
Parameter     Name      Value
uuH_0 0 1 1  ON 0
uuH_1 0 1 1  ON 1
uuH_2 0 1 1  ON 2
uuH_3 0 1 1  ON 3
uuH_4 0 1 1  ON 4
uuH_5 0 1 1  ON 5
uuH_6 0 1 1  ON 6
uuH_7 0 1 1  ON 7
uuH_8 0 1 1  ON 8
uuH_9 0 1 1  ON 9
uuH_10 0 1 1  ON 10
uuH_11 0 1 1  ON 11
uuH_12 0 1 1  ON 12
uuH_13 0 1 1  ON 13
uuH_14 0 1 1  ON 14
uuH_15 0 1 1  ON 15
uuH_16 0 1 1  ON 16
uuH_17 0 1 1  ON 17
uuH_18 0 1 1  ON 18
uuH_19 0 1 1  ON 19
uuH_20 0 1 1  ON 20
uuH_21 0 1 1  ON 21
uuH_22 0 1 1  ON 22
uuH_23 0 1 1  ON 23
uuH_24 0 1 1  ON 24
uuH_25 0 1 1  ON 25
Expected 26 parameters, but found 0 in PolynomialFunctor3D.
Parameter     Name      Value
udH_0 0 1 1  ON 0
udH_1 0 1 1  ON 1
udH_2 0 1 1  ON 2
udH_3 0 1 1  ON 3
udH_4 0 1 1  ON 4
udH_5 0 1 1  ON 5
udH_6 0 1 1  ON 6
udH_7 0 1 1  ON 7
udH_8 0 1 1  ON 8
udH_9 0 1 1  ON 9
udH_10 0 1 1  ON 10
udH_11 0 1 1  ON 11
udH_12 0 1 1  ON 12
udH_13 0 1 1  ON 13
udH_14 0 1 1  ON 14
udH_15 0 1 1  ON 15
udH_16 0 1 1  ON 16
udH_17 0 1 1  ON 17
udH_18 0 1 1  ON 18
udH_19 0 1 1  ON 19
udH_20 0 1 1  ON 20
udH_21 0 1 1  ON 21
udH_22 0 1 1  ON 22
udH_23 0 1 1  ON 23
udH_24 0 1 1  ON 24
udH_25 0 1 1  ON 25
  QMCHamiltonian::addOperator Kinetic to H, physical Hamiltonian 
  ... ParticleSet::addTable Reuse Table #0 e_e
  QMCHamiltonian::addOperator ElecElec to H, physical Hamiltonian 
QMCHamiltonian::addOperatorType added type coulomb named ElecElec

  ECPotential builder for pseudopotential 

  Adding pseudopotential for O
   Linear grid  ri=0 rf=10 npts = 10001
    ECPComponentBuilder::buildSemiLocalAndLocal 
    Assuming Hartree unit
   Number of angular momentum channels 2
   Maximum angular momentum channel 1
   Creating a Linear Grid Rmax=1.30534
  Using global grid with delta = 0.001
   Making L=1 a local potential with a radial cutoff of 9.998
  NonLocalECPComponent::resize_warrays 
    Non-local pseudopotential parameters
    Maximum angular mementum = 0
    Number of non-local channels = 1
       l(0)=0
    Cutoff radius = 1.306
    Spherical grids and weights: 
                        1                 0                 0       0.08333333333
                       -1   1.224646799e-16                 0       0.08333333333
             0.4472135955       0.894427191                 0       0.08333333333
            -0.4472135955      0.7236067977      0.5257311121       0.08333333333
             0.4472135955      0.2763932023      0.8506508084       0.08333333333
            -0.4472135955     -0.2763932023      0.8506508084       0.08333333333
             0.4472135955     -0.7236067977      0.5257311121       0.08333333333
            -0.4472135955      -0.894427191   1.095357397e-16       0.08333333333
             0.4472135955     -0.7236067977     -0.5257311121       0.08333333333
            -0.4472135955     -0.2763932023     -0.8506508084       0.08333333333
             0.4472135955      0.2763932023     -0.8506508084       0.08333333333
            -0.4472135955      0.7236067977     -0.5257311121       0.08333333333
    Maximum cutoff radius 1.306

  Adding pseudopotential for H
   Linear grid  ri=0 rf=10 npts = 10001
    ECPComponentBuilder::buildSemiLocalAndLocal 
    Assuming Hartree unit
    Only one vps is found. Set the local component=0
   Number of angular momentum channels 1
   Maximum angular momentum channel 0
   Creating a Linear Grid Rmax=1.16639
  Using global grid with delta = 0.001
   Making L=0 a local potential with a radial cutoff of 9.998
  ... ParticleSet::addTable Reuse Table #1 ion0_e
  QMCHamiltonian::addOperator LocalECP to H, physical Hamiltonian 
  ... ParticleSet::addTable Reuse Table #1 ion0_e
  ... ParticleSet::addTable Reuse Table #1 ion0_e

  Using NonLocalECP potential 
    Maximum grid on a sphere for NonLocalECPotential: 12
  QMCHamiltonian::addOperator NonLocalECP to H, physical Hamiltonian 
QMCHamiltonian::addOperatorType added type pseudo named ELEMENT-ECP
  Distance table for AA: source/target = ion0
    PBC=open Orthorhombic=NA
 using Cartesian coordinates with 
  ... ParticleSet::addTable Create Table #0 ion0_ion0
  QMCHamiltonian::addOperator IonIon to H, physical Hamiltonian 
QMCHamiltonian::addOperatorType added type coulomb named IonIon

  QMCHamiltonian::add2WalkerProperty added
    5 to P::PropertyList 
    0 to P::Collectables 
    starting Index of the observables in P::PropertyList = 9
  Hamiltonian disables VirtualMoves
<init source="ion0" target="e">
  ... ParticleSet::addTable Reuse Table #0 ion0_ion0
</init>
ParticleSetPool::randomize 
=========================================================
 Summary of QMC systems 
=========================================================
ParticleSetPool has: 

  ParticleSet e : 0 4 8 

    8

    u  4.8293471632e-01  5.0203489381e-01  1.9666479095e-01
    u -6.0386650780e-01 -3.0877713981e-01  2.5287137743e-01
    u  1.4820374601e-01 -2.6441314015e-01 -6.5731526364e-01
    u -8.2290125282e-02 -2.0565216838e+00  1.4623759352e+00
    d  1.8505267215e-01  4.2514892643e-01  5.5582903281e-01
    d -2.2651039468e-01  4.8063016687e-01  4.9155843868e-01
    d  5.6664765286e-01 -3.1001453278e-01 -3.2671614868e-01
    d -2.9815941359e-01  2.0800507984e+00  9.9147166251e-01

  ParticleSet ion0 : 0 1 3 

    3

    O  0.0000000000e+00  0.0000000000e+00  0.0000000000e+00
    H -0.0000000000e+00 -1.4308249289e+00  1.1078707576e+00
    H  0.0000000000e+00  1.4308249289e+00  1.1078707576e+00

  Hamiltonian h0
  Kinetic         Kinetic energy
  ElecElec        CoulombAA source/target e

  LocalECP        LocalECPotential: ion0
  NonLocalECP     NonLocalECPotential: ion0
  IonIon          CoulombAA source/target ion0

Loop execution max-interations = 10

=========================================================
  Start QMCFixedSampleLinearOptimize
  File Root jopt-h2o.s000 append = no 
=========================================================
  Skip QMCDriver::putQMCInfo 
  Resetting Properties of the walkers 1 x 14
  Adding 1 walkers to 0 existing sets
  Total number of walkers: 3.2000000000e+02
  Total weight: 3.2000000000e+02

=========================================================
  Start VMCSingleOMP
  File Root jopt-h2o.s000 append = no 
=========================================================
  Using the current 1 walkers.
  Total number of walkers: 3.2000000000e+02
  Total weight: 3.2000000000e+02
  Resetting Properties of the walkers 1 x 14

<vmc function="put">
  qmc_counter=0  my_counter=0
  time step      = 5.0000000000e-01
  blocks         = 100
  steps          = 2
  substeps       = 20
  current        = 0
  target samples = 5.1200000000e+04
  walkers/mpi    = 1

  stepsbetweensamples = 1
<parameter name="blocks" condition="int">100</parameter>
<parameter name="check_properties" condition="int">100</parameter>
<parameter name="checkproperties" condition="int">100</parameter>
<parameter name="current" condition="int">0</parameter>
<parameter name="dmcwalkersperthread" condition="real">1.6000000000e+02</parameter>
<parameter name="maxcpusecs" condition="real">3.6000000000e+05</parameter>
<parameter name="record_configs" condition="int">0</parameter>
<parameter name="record_walkers" condition="int">1</parameter>
<parameter name="recordconfigs" condition="int">0</parameter>
<parameter name="recordwalkers" condition="int">1</parameter>
<parameter name="rewind" condition="int">0</parameter>
<parameter name="samples" condition="real">5.1200000000e+04</parameter>
<parameter name="samplesperthread" condition="real">1.6000000000e+02</parameter>
<parameter name="steps" condition="int">2</parameter>
<parameter name="stepsbetweensamples" condition="int">1</parameter>
<parameter name="store_configs" condition="int">0</parameter>
<parameter name="storeconfigs" condition="int">0</parameter>
<parameter name="sub_steps" condition="int">20</parameter>
<parameter name="substeps" condition="int">20</parameter>
<parameter name="tau" condition="au">5.0000000000e-01</parameter>
<parameter name="time_step" condition="au">5.0000000000e-01</parameter>
<parameter name="timestep" condition="au">5.0000000000e-01</parameter>
<parameter name="use_drift" condition="string">yes</parameter>
<parameter name="usedrift" condition="string">yes</parameter>
<parameter name="walkers" condition="int">1</parameter>
<parameter name="warmup_steps" condition="int">25</parameter>
<parameter name="warmupsteps" condition="int">25</parameter>
  DumpConfig==false Nothing (configurations, state) will be saved.
  Walker Samples are dumped every 1 steps.
</vmc>
 Using QMCCostFunctionOMP::QMCCostFunctionOMP
<optimization-report>
<vmc stage="main" blocks="100">
  Initial partition of walkers 0 1 
  PbyP moves with drift, using VMCUpdatePbyPWithDriftFast

  Total Sample Size   =51200
  Walker distribution on root = 0 1 
  Anonymous Buffer size per walker 6437
MEMORY increase 0 MB VMCSingleOMP::resetRun
====================================================
  SimpleFixedNodeBranch::finalize after a VMC block
    QMC counter        = 0
    time step          = 0.5
    reference energy   = -17.1548
    reference variance = 0.903799
====================================================
  Execution time = 3.6684314550e+00
</vmc>
<opt stage="setup">
  <log>
   Reading configurations from h5FileRoot jopt-h2o.s000
  QMCCostFunctionOMP is created with 1
   Loading configuration from MCWalkerConfiguration::SampleStack 
    number of walkers before load 1
  Using Nonlocal PP in Opt: NonLocalECP
    number of walkers after load: 160 
Using buffers for temporary storage in QMCCostFunction.

Memory usage: 
Linear method (approx matrix usage: 4*N^2): 2.8037120000e+00 MB
Deriv,HDerivRecord:      1.1366400000e+00 MB
Buffer memory cost:     MB/walker       MB/total 
Orbitals only:           2.3040000000e-03      3.6864000000e-01
Orbitals + dervs:        1.1520000000e-02      1.8432000000e+00
Inverse:                 2.5600000000e-04      4.0960000000e-02
Determinants:            3.3728000000e-02      5.3964800000e+00
  VMC Eavg = -1.7158702223e+01
  VMC Evar = 9.3531162693e-01
  Total weights = 5.1200000000e+04
  Execution time = 5.4562871301e-01
  </log>
</opt>
<opt stage="main" walkers="51200">
  <log>
Iteration: 1/1
od_largest 2.2743869823e+09
  stabilityBase -6.0000000000e+00
  stabilizerScale 2.0000000000e+00
  Using XS:-6.0000000000e+00 0 0
ERROR CostFunction-> Number of Effective Walkers is too small 9.0566486352e+03 NumWalkersEff/NumSamples 1.7688766866e-01
ERROR CostFunction-> Number of Effective Walkers is too small 1.0000000000e+00 NumWalkersEff/NumSamples 1.9531250000e-05
ERROR CostFunction-> Number of Effective Walkers is too small 1.0000000000e+00 NumWalkersEff/NumSamples 1.9531250000e-05
ERROR CostFunction-> Number of Effective Walkers is too small 1.0000000000e+00 NumWalkersEff/NumSamples 1.9531250000e-05
ERROR CostFunction-> Number of Effective Walkers is too small 1.0000000000e+00 NumWalkersEff/NumSamples 1.9531250000e-05
ERROR CostFunction-> Number of Effective Walkers is too small 1.0000000000e+00 NumWalkersEff/NumSamples 1.9531250000e-05
  Failed Step. Largest LM parameter change:2.2198262818e+03
ERROR   Using XS:-4.0000000000e+00 1 0
ERROR CostFunction-> Number of Effective Walkers is too small 9.0535371045e+03 NumWalkersEff/NumSamples 1.7682689657e-01
ERROR CostFunction-> Number of Effective Walkers is too small 1.0000000000e+00 NumWalkersEff/NumSamples 1.9531250000e-05
ERROR CostFunction-> Number of Effective Walkers is too small 1.0000000000e+00 NumWalkersEff/NumSamples 1.9531250000e-05
ERROR CostFunction-> Number of Effective Walkers is too small 1.0000000000e+00 NumWalkersEff/NumSamples 1.9531250000e-05
ERROR CostFunction-> Number of Effective Walkers is too small 1.0000000000e+00 NumWalkersEff/NumSamples 1.9531250000e-05
ERROR CostFunction-> Number of Effective Walkers is too small 1.0000000000e+00 NumWalkersEff/NumSamples 1.9531250000e-05
  Failed Step. Largest LM parameter change:2.2200801524e+03
ERROR   Using XS:-2.0000000000e+00 2 0
ERROR CostFunction-> Number of Effective Walkers is too small 9.0290453982e+03 NumWalkersEff/NumSamples 1.7634854293e-01
ERROR CostFunction-> Number of Effective Walkers is too small 1.0000000000e+00 NumWalkersEff/NumSamples 1.9531250000e-05
ERROR CostFunction-> Number of Effective Walkers is too small 1.0000000000e+00 NumWalkersEff/NumSamples 1.9531250000e-05
ERROR CostFunction-> Number of Effective Walkers is too small 1.0000000000e+00 NumWalkersEff/NumSamples 1.9531250000e-05
ERROR CostFunction-> Number of Effective Walkers is too small 1.0000000000e+00 NumWalkersEff/NumSamples 1.9531250000e-05
ERROR CostFunction-> Number of Effective Walkers is too small 1.0000000000e+00 NumWalkersEff/NumSamples 1.9531250000e-05
  Failed Step. Largest LM parameter change:2.2220820045e+03
ERROR   Using XS:0.0000000000e+00 3 0
ERROR CostFunction-> Number of Effective Walkers is too small 1.9741365293e+00 NumWalkersEff/NumSamples 3.8557354087e-05
ERROR CostFunction-> Number of Effective Walkers is too small 1.0000000000e+00 NumWalkersEff/NumSamples 1.9531250000e-05
ERROR CostFunction-> Number of Effective Walkers is too small 1.0000000000e+00 NumWalkersEff/NumSamples 1.9531250000e-05
ERROR CostFunction-> Number of Effective Walkers is too small 1.0000000000e+00 NumWalkersEff/NumSamples 1.9531250000e-05
ERROR CostFunction-> Number of Effective Walkers is too small 1.0000000000e+00 NumWalkersEff/NumSamples 1.9531250000e-05
ERROR CostFunction-> Number of Effective Walkers is too small 1.0000000000e+00 NumWalkersEff/NumSamples 1.9531250000e-05
  Failed Step. Largest LM parameter change:3.0977671180e+03
ERROR   Using XS:2.0000000000e+00 4 0
ERROR CostFunction-> Number of Effective Walkers is too small 1.3401933805e+04 NumWalkersEff/NumSamples 2.6175651964e-01
Before:  ax = 0.0000000000e+00  bx=5.0187880352e-01  cx=0.0000000000e+00
Problems bracketing minimum. Lower Value returned.
  Failed Step. Largest LM parameter change:4.8738929984e+02
ERROR   Using XS:4.0000000000e+00 5 0
Before:  ax = 0.0000000000e+00  bx=5.0006809664e-01  cx=0.0000000000e+00
After:  ax = 1.3091952793e+00  bx=5.4871897218e+00  cx=2.6183905712e+00
Minimum found at lambda = 5.4871897218e+00
  Failed Step. Largest LM parameter change:1.2114766506e+01
ERROR   Using XS:6.0000000000e+00 6 0
  Good Step. Largest LM parameter change:7.5803843133e+00
 OldCost: -1.6254001530e+01 NewCost: -1.6360576965e+01 Delta Cost:-1.0657543520e-01
      Current ene:     -1.7238136646e+01
      Current var:     3.1305696712e-01
      Current ene_urw:     -1.7220700032e+01
      Current var_urw: 4.1811114842e-01
Setting new Parameters
ERROR   Execution time = 3.5618380848e+01
  </log>
  <optVariables href="jopt-h2o.s000.opt.xml">
CSFcoeff_1 -5.2236588244e-02 3 1  ON 0
CSFcoeff_2 4.6618244452e-02 3 1  ON 1
CSFcoeff_3 -3.5916486269e-02 3 1  ON 2
CSFcoeff_4 3.2021787276e-02 3 1  ON 3
CSFcoeff_5 -3.0790444281e-02 3 1  ON 4
CSFcoeff_6 -3.2948173330e-02 3 1  ON 5
CSFcoeff_7 2.7473865427e-02 3 1  ON 6
CSFcoeff_8 2.6418417517e-02 3 1  ON 7
CSFcoeff_9 -2.6566441460e-02 3 1  ON 8
CSFcoeff_10 -2.6809609986e-02 3 1  ON 9
CSFcoeff_11 -2.5382081413e-02 3 1  ON 10
CSFcoeff_12 2.3472581365e-02 3 1  ON 11
CSFcoeff_13 2.9144410143e-02 3 1  ON 12
CSFcoeff_14 -2.4542086034e-02 3 1  ON 13
CSFcoeff_15 -2.3871972810e-02 3 1  ON 14
CSFcoeff_16 -2.4613892842e-02 3 1  ON 15
CSFcoeff_17 2.4435604746e-02 3 1  ON 16
CSFcoeff_18 -2.3357997300e-02 3 1  ON 17
CSFcoeff_19 -2.4433720245e-02 3 1  ON 18
CSFcoeff_20 -2.1151774359e-02 3 1  ON 19
CSFcoeff_21 2.3116909809e-02 3 1  ON 20
CSFcoeff_22 -2.2103516748e-02 3 1  ON 21
CSFcoeff_23 2.2170064801e-02 3 1  ON 22
CSFcoeff_24 -2.2312035771e-02 3 1  ON 23
CSFcoeff_25 2.1904738284e-02 3 1  ON 24
CSFcoeff_26 1.3759892669e-02 3 1  ON 25
CSFcoeff_27 -1.7856654476e-02 3 1  ON 26
CSFcoeff_28 1.7090616364e-02 3 1  ON 27
CSFcoeff_29 -1.9018592590e-02 3 1  ON 28
CSFcoeff_30 1.7800579499e-02 3 1  ON 29
CSFcoeff_31 -1.7454457061e-02 3 1  ON 30
CSFcoeff_32 -1.6739564936e-02 3 1  ON 31
CSFcoeff_33 1.4746458849e-02 3 1  ON 32
CSFcoeff_34 -1.5722597943e-02 3 1  ON 33
CSFcoeff_35 1.6032970779e-02 3 1  ON 34
CSFcoeff_36 -1.5850827534e-02 3 1  ON 35
CSFcoeff_37 1.5890352239e-02 3 1  ON 36
CSFcoeff_38 -1.3572574638e-02 3 1  ON 37
CSFcoeff_39 1.4577456690e-02 3 1  ON 38
CSFcoeff_40 -1.4350871807e-02 3 1  ON 39
CSFcoeff_41 1.2374337684e-02 3 1  ON 40
CSFcoeff_42 -1.0756191712e-02 3 1  ON 41
CSFcoeff_43 1.4991766079e-02 3 1  ON 42
CSFcoeff_44 -1.4077246210e-02 3 1  ON 43
CSFcoeff_45 -1.5962826160e-02 3 1  ON 44
CSFcoeff_46 -1.1101496379e-02 3 1  ON 45
CSFcoeff_47 1.3604885507e-02 3 1  ON 46
CSFcoeff_48 -1.2889006482e-02 3 1  ON 47
CSFcoeff_49 1.2440125721e-02 3 1  ON 48
CSFcoeff_50 -1.0692413197e-02 3 1  ON 49
CSFcoeff_51 -1.1427702135e-02 3 1  ON 50
CSFcoeff_52 -1.0902280988e-02 3 1  ON 51
CSFcoeff_53 -8.9145741452e-03 3 1  ON 52
CSFcoeff_54 -1.0757878231e-02 3 1  ON 53
CSFcoeff_55 1.1541253171e-02 3 1  ON 54
CSFcoeff_56 9.3676887226e-03 3 1  ON 55
CSFcoeff_57 -1.0944887533e-02 3 1  ON 56
CSFcoeff_58 -1.0177459127e-02 3 1  ON 57
CSFcoeff_59 1.0774010173e-02 3 1  ON 58
CSFcoeff_60 -9.2826481920e-03 3 1  ON 59
CSFcoeff_61 1.1011564913e-02 3 1  ON 60
CSFcoeff_62 -9.3516472276e-03 3 1  ON 61
CSFcoeff_63 1.0648431702e-02 3 1  ON 62
CSFcoeff_64 1.0763661454e-02 3 1  ON 63
CSFcoeff_65 -9.4784873346e-03 3 1  ON 64
CSFcoeff_66 -8.9945429382e-03 3 1  ON 65
CSFcoeff_67 1.0357560944e-02 3 1  ON 66
CSFcoeff_68 -8.6425847871e-03 3 1  ON 67
CSFcoeff_69 -8.9646291564e-03 3 1  ON 68
CSFcoeff_70 -1.0587522711e-02 3 1  ON 69
CSFcoeff_71 7.6729189989e-03 3 1  ON 70
CSFcoeff_72 -8.5270470576e-03 3 1  ON 71
CSFcoeff_73 -8.8135714749e-03 3 1  ON 72
CSFcoeff_74 9.0960298652e-03 3 1  ON 73
CSFcoeff_75 -8.1225429486e-03 3 1  ON 74
CSFcoeff_76 -9.7940121190e-03 3 1  ON 75
CSFcoeff_77 1.0210129896e-02 3 1  ON 76
CSFcoeff_78 1.2078498262e-02 3 1  ON 77
CSFcoeff_79 8.5703267729e-03 3 1  ON 78
CSFcoeff_80 -8.4061277646e-03 3 1  ON 79
CSFcoeff_81 -7.8455581882e-03 3 1  ON 80
CSFcoeff_82 -8.0861847450e-03 3 1  ON 81
CSFcoeff_83 7.5300828940e-03 3 1  ON 82
CSFcoeff_84 7.2228672807e-03 3 1  ON 83
CSFcoeff_85 9.6611534578e-03 3 1  ON 84
CSFcoeff_86 8.0852139711e-03 3 1  ON 85
CSFcoeff_87 8.8757014404e-03 3 1  ON 86
CSFcoeff_88 -7.4311992233e-03 3 1  ON 87
CSFcoeff_89 8.4165560957e-03 3 1  ON 88
CSFcoeff_90 -6.8892415733e-03 3 1  ON 89
CSFcoeff_91 8.3729470151e-03 3 1  ON 90
CSFcoeff_92 7.3104840560e-03 3 1  ON 91
CSFcoeff_93 6.7098211592e-03 3 1  ON 92
CSFcoeff_94 8.0637353505e-03 3 1  ON 93
CSFcoeff_95 -9.0135594845e-03 3 1  ON 94
CSFcoeff_96 -5.9662480441e-03 3 1  ON 95
CSFcoeff_97 5.9236387559e-03 3 1  ON 96
CSFcoeff_98 -5.8332741941e-03 3 1  ON 97
CSFcoeff_99 9.8365084616e-03 3 1  ON 98
CSFcoeff_100 8.7143325956e-03 3 1  ON 99
CSFcoeff_101 -8.7226326512e-03 3 1  ON 100
CSFcoeff_102 7.3378124536e-03 3 1  ON 101
CSFcoeff_103 7.0207961519e-03 3 1  ON 102
CSFcoeff_104 -7.2211473510e-03 3 1  ON 103
CSFcoeff_105 -7.5769023182e-03 3 1  ON 104
CSFcoeff_106 -6.2602436385e-03 3 1  ON 105
CSFcoeff_107 7.1940967679e-03 3 1  ON 106
CSFcoeff_108 -6.5416263452e-03 3 1  ON 107
CSFcoeff_109 7.5803159179e-03 3 1  ON 108
CSFcoeff_110 -7.7187947279e-03 3 1  ON 109
CSFcoeff_111 5.8371667417e-03 3 1  ON 110
CSFcoeff_112 7.4660156356e-03 3 1  ON 111
CSFcoeff_113 -7.7322229212e-03 3 1  ON 112
CSFcoeff_114 7.4080522359e-03 3 1  ON 113
CSFcoeff_115 6.7076025760e-03 3 1  ON 114
CSFcoeff_116 7.4534781809e-03 3 1  ON 115
CSFcoeff_117 -7.8611680423e-03 3 1  ON 116
CSFcoeff_118 7.5755466007e-03 3 1  ON 117
CSFcoeff_119 -5.9275331078e-03 3 1  ON 118
CSFcoeff_120 7.8600979593e-03 3 1  ON 119
CSFcoeff_121 7.3766433364e-03 3 1  ON 120
CSFcoeff_122 -6.8236468349e-03 3 1  ON 121
CSFcoeff_123 -7.8181479989e-03 3 1  ON 122
CSFcoeff_124 6.6581089339e-03 3 1  ON 123
CSFcoeff_125 -4.9757830493e-03 3 1  ON 124
CSFcoeff_126 7.3209022467e-03 3 1  ON 125
CSFcoeff_127 6.6932319336e-03 3 1  ON 126
CSFcoeff_128 -6.2134008283e-03 3 1  ON 127
CSFcoeff_129 5.9392034962e-03 3 1  ON 128
CSFcoeff_130 -6.7576032721e-03 3 1  ON 129
CSFcoeff_131 -6.2090769298e-03 3 1  ON 130
CSFcoeff_132 -6.2975012540e-03 3 1  ON 131
CSFcoeff_133 -7.0457460080e-03 3 1  ON 132
CSFcoeff_134 4.4186749341e-03 3 1  ON 133
CSFcoeff_135 5.7612163191e-03 3 1  ON 134
CSFcoeff_136 5.5532291199e-03 3 1  ON 135
CSFcoeff_137 -6.0495359799e-03 3 1  ON 136
CSFcoeff_138 -5.6410254172e-03 3 1  ON 137
CSFcoeff_139 -6.1868369090e-03 3 1  ON 138
CSFcoeff_140 5.2268839166e-03 3 1  ON 139
CSFcoeff_141 -4.9995716047e-03 3 1  ON 140
CSFcoeff_142 -4.9248039818e-03 3 1  ON 141
CSFcoeff_143 -6.7221750181e-03 3 1  ON 142
CSFcoeff_144 5.2220535881e-03 3 1  ON 143
CSFcoeff_145 -6.0798947492e-03 3 1  ON 144
CSFcoeff_146 -6.4131131329e-03 3 1  ON 145
CSFcoeff_147 3.7413749373e-03 3 1  ON 146
CSFcoeff_148 -5.4322494684e-03 3 1  ON 147
CSFcoeff_149 4.6008552559e-03 3 1  ON 148
CSFcoeff_150 5.1821965531e-03 3 1  ON 149
CSFcoeff_151 -6.3427565335e-03 3 1  ON 150
CSFcoeff_152 -4.8393275241e-03 3 1  ON 151
uu_0 1.5590305813e-01 1 1  ON 152
uu_1 -4.0158114606e-02 1 1  ON 153
uu_2 -6.5070160788e-02 1 1  ON 154
uu_3 -7.3199649403e-02 1 1  ON 155
uu_4 -7.3841896780e-02 1 1  ON 156
uu_5 -7.5385172445e-02 1 1  ON 157
uu_6 -8.2760224145e-02 1 1  ON 158
uu_7 -7.9448149464e-02 1 1  ON 159
uu_8 -6.9279958989e-02 1 1  ON 160
uu_9 -1.0551331928e-01 1 1  ON 161
ud_0 3.4511871247e-01 1 1  ON 162
ud_1 6.8386077747e-02 1 1  ON 163
ud_2 5.2211456308e-02 1 1  ON 164
ud_3 2.7911530643e-02 1 1  ON 165
ud_4 2.3353372069e-02 1 1  ON 166
ud_5 1.2313114754e-02 1 1  ON 167
ud_6 1.1750271265e-02 1 1  ON 168
ud_7 9.5167795791e-03 1 1  ON 169
ud_8 2.7097627685e-02 1 1  ON 170
ud_9 -1.4794405279e-02 1 1  ON 171
eO_0 -7.0404703166e+00 1 1  ON 172
eO_1 -6.9212347557e+00 1 1  ON 173
eO_2 -6.7383024584e+00 1 1  ON 174
eO_3 -6.5728888742e+00 1 1  ON 175
eO_4 -6.4704570866e+00 1 1  ON 176
eO_5 -6.4573730449e+00 1 1  ON 177
eO_6 -6.4616152419e+00 1 1  ON 178
eO_7 -6.4789917417e+00 1 1  ON 179
eO_8 -6.3993530215e+00 1 1  ON 180
eO_9 -7.5803843133e+00 1 1  ON 181
eH_0 -3.2866242861e-01 1 1  ON 182
eH_1 -3.0799426350e-01 1 1  ON 183
eH_2 -3.0168974930e-01 1 1  ON 184
eH_3 -2.6531976488e-01 1 1  ON 185
eH_4 -2.4228517370e-01 1 1  ON 186
eH_5 -2.4363687090e-01 1 1  ON 187
eH_6 -2.5081796510e-01 1 1  ON 188
eH_7 -2.4707707981e-01 1 1  ON 189
eH_8 -2.3006826575e-01 1 1  ON 190
eH_9 -2.8660145778e-01 1 1  ON 191
uuO_0 3.0080448370e-06 1 1  ON 192
uuO_1 -9.3656521862e-06 1 1  ON 193
uuO_2 -2.1704990873e-06 1 1  ON 194
uuO_3 1.0764635625e-07 1 1  ON 195
uuO_4 -6.2710906720e-08 1 1  ON 196
uuO_5 9.7784474367e-07 1 1  ON 197
uuO_6 -3.4487176206e-05 1 1  ON 198
uuO_7 3.8842737728e-05 1 1  ON 199
uuO_8 1.1147449715e-05 1 1  ON 200
uuO_9 1.8779748366e-05 1 1  ON 201
uuO_10 3.0029971122e-06 1 1  ON 202
uuO_11 -2.6485427714e-05 1 1  ON 203
uuO_12 -1.0587814178e-06 1 1  ON 204
uuO_13 -5.0693333078e-06 1 1  ON 205
uuO_14 4.4337013749e-06 1 1  ON 206
uuO_15 -3.3861323090e-07 1 1  ON 207
uuO_16 -1.8027433266e-05 1 1  ON 208
uuO_17 -5.4598837093e-06 1 1  ON 209
uuO_18 2.3406167217e-05 1 1  ON 210
uuO_19 -2.5355057924e-06 1 1  ON 211
uuO_20 4.6453593746e-06 1 1  ON 212
uuO_21 -4.6571405901e-06 1 1  ON 213
uuO_22 7.7004396584e-07 1 1  ON 214
uuO_23 -6.8968582914e-07 1 1  ON 215
uuO_24 1.0259949128e-06 1 1  ON 216
uuO_25 -2.0324155048e-07 1 1  ON 217
udO_0 5.7642716010e-07 1 1  ON 218
udO_1 7.5239853063e-06 1 1  ON 219
udO_2 3.1583606960e-06 1 1  ON 220
udO_3 -9.7546729924e-06 1 1  ON 221
udO_4 -3.4834215638e-06 1 1  ON 222
udO_5 -9.1895462323e-07 1 1  ON 223
udO_6 -4.0613361653e-06 1 1  ON 224
udO_7 1.4627880566e-05 1 1  ON 225
udO_8 1.8161327858e-05 1 1  ON 226
udO_9 6.3765376255e-06 1 1  ON 227
udO_10 -6.6605753932e-06 1 1  ON 228
udO_11 -1.2860907378e-05 1 1  ON 229
udO_12 -5.5327335412e-06 1 1  ON 230
udO_13 8.5175494394e-06 1 1  ON 231
udO_14 6.5739154770e-06 1 1  ON 232
udO_15 -1.2347913405e-07 1 1  ON 233
udO_16 -1.3288730419e-05 1 1  ON 234
udO_17 1.6322902592e-05 1 1  ON 235
udO_18 7.0235068380e-06 1 1  ON 236
udO_19 1.1085299359e-06 1 1  ON 237
udO_20 -1.8981995726e-06 1 1  ON 238
udO_21 -2.6688645413e-06 1 1  ON 239
udO_22 2.5622667734e-07 1 1  ON 240
udO_23 1.1223411899e-06 1 1  ON 241
udO_24 4.7904572919e-07 1 1  ON 242
udO_25 -8.8675091787e-08 1 1  ON 243
uuH_0 -2.2640269975e-07 1 1  ON 244
uuH_1 8.2832981215e-06 1 1  ON 245
uuH_2 1.7846540822e-05 1 1  ON 246
uuH_3 9.4739819843e-06 1 1  ON 247
uuH_4 3.6736916583e-07 1 1  ON 248
uuH_5 -9.0313251295e-07 1 1  ON 249
uuH_6 3.0455170239e-05 1 1  ON 250
uuH_7 -2.7907915328e-06 1 1  ON 251
uuH_8 9.2089928575e-06 1 1  ON 252
uuH_9 -2.6402539579e-05 1 1  ON 253
uuH_10 1.1172003730e-05 1 1  ON 254
uuH_11 -2.4459366047e-05 1 1  ON 255
uuH_12 5.3196173892e-07 1 1  ON 256
uuH_13 -6.3178060030e-06 1 1  ON 257
uuH_14 -9.3182789605e-07 1 1  ON 258
uuH_15 5.1126417658e-08 1 1  ON 259
uuH_16 5.0022298608e-05 1 1  ON 260
uuH_17 -3.2952546297e-05 1 1  ON 261
uuH_18 2.7076904559e-05 1 1  ON 262
uuH_19 -2.7930905576e-06 1 1  ON 263
uuH_20 -8.3520005815e-06 1 1  ON 264
uuH_21 -2.6288673441e-06 1 1  ON 265
uuH_22 4.0925376731e-07 1 1  ON 266
uuH_23 2.6216162768e-06 1 1  ON 267
uuH_24 2.9333344915e-07 1 1  ON 268
uuH_25 -6.5230521925e-08 1 1  ON 269
udH_0 -2.2580563058e-07 1 1  ON 270
udH_1 -6.8670057279e-06 1 1  ON 271
udH_2 5.6987703119e-06 1 1  ON 272
udH_3 3.4583863474e-06 1 1  ON 273
udH_4 -1.5503353400e-07 1 1  ON 274
udH_5 2.8786994820e-07 1 1  ON 275
udH_6 -1.4234597216e-05 1 1  ON 276
udH_7 2.0441291672e-05 1 1  ON 277
udH_8 1.1010753683e-05 1 1  ON 278
udH_9 8.1844225475e-06 1 1  ON 279
udH_10 6.1114467713e-06 1 1  ON 280
udH_11 -2.3460717396e-05 1 1  ON 281
udH_12 -1.0886517639e-06 1 1  ON 282
udH_13 -4.8515120915e-06 1 1  ON 283
udH_14 2.8516397011e-06 1 1  ON 284
udH_15 -1.7111002723e-07 1 1  ON 285
udH_16 -5.7526908724e-06 1 1  ON 286
udH_17 -1.1488647543e-05 1 1  ON 287
udH_18 2.2182422705e-05 1 1  ON 288
udH_19 -2.1047362023e-06 1 1  ON 289
udH_20 2.5066354904e-06 1 1  ON 290
udH_21 -3.7800270880e-06 1 1  ON 291
udH_22 5.8182011555e-07 1 1  ON 292
udH_23 -5.5209704584e-07 1 1  ON 293
udH_24 7.5699707863e-07 1 1  ON 294
udH_25 -1.4402589553e-07 1 1  ON 295
  </optVariables>
   Restore the number of walkers to 1, removing 159 walkers.
</opt>
</optimization-report>
  QMC Execution time = 3.5637935994e+01 secs 
  Reusing QMCFixedSampleLinearOptimize
 Using QMCCostFunctionOMP::QMCCostFunctionOMP

=========================================================
  Start QMCFixedSampleLinearOptimize
  File Root jopt-h2o.s001 append = no 
=========================================================
  Skip QMCDriver::putQMCInfo 
  Resetting Properties of the walkers 1 x 14

=========================================================
  Start VMCSingleOMP
  File Root jopt-h2o.s001 append = no 
=========================================================
Using existing walkers 
  Resetting Properties of the walkers 1 x 14

<vmc function="put">
  qmc_counter=1  my_counter=1
  time step      = 5.0000000000e-01
  blocks         = 100
  steps          = 2
  substeps       = 20
  current        = 0
  target samples = 5.1200000000e+04
  walkers/mpi    = 1

  stepsbetweensamples = 1
<parameter name="blocks" condition="int">100</parameter>
<parameter name="check_properties" condition="int">100</parameter>
<parameter name="checkproperties" condition="int">100</parameter>
<parameter name="current" condition="int">0</parameter>
<parameter name="dmcwalkersperthread" condition="real">1.6000000000e+02</parameter>
<parameter name="maxcpusecs" condition="real">3.6000000000e+05</parameter>
<parameter name="record_configs" condition="int">0</parameter>
<parameter name="record_walkers" condition="int">1</parameter>
<parameter name="recordconfigs" condition="int">0</parameter>
<parameter name="recordwalkers" condition="int">1</parameter>
<parameter name="rewind" condition="int">0</parameter>
<parameter name="samples" condition="real">5.1200000000e+04</parameter>
<parameter name="samplesperthread" condition="real">1.6000000000e+02</parameter>
<parameter name="steps" condition="int">2</parameter>
<parameter name="stepsbetweensamples" condition="int">1</parameter>
<parameter name="store_configs" condition="int">0</parameter>
<parameter name="storeconfigs" condition="int">0</parameter>
<parameter name="sub_steps" condition="int">20</parameter>
<parameter name="substeps" condition="int">20</parameter>
<parameter name="tau" condition="au">5.0000000000e-01</parameter>
<parameter name="time_step" condition="au">5.0000000000e-01</parameter>
<parameter name="timestep" condition="au">5.0000000000e-01</parameter>
<parameter name="use_drift" condition="string">yes</parameter>
<parameter name="usedrift" condition="string">yes</parameter>
<parameter name="walkers" condition="int">1</parameter>
<parameter name="warmup_steps" condition="int">25</parameter>
<parameter name="warmupsteps" condition="int">25</parameter>
  DumpConfig==false Nothing (configurations, state) will be saved.
  Walker Samples are dumped every 1 steps.
</vmc>
  EstimatorManager::add replace LocalEnergy estimator.
  EstimatorManager::add replace LocalEnergy estimator.
<optimization-report>
<vmc stage="main" blocks="100">
  Cannot make clones again. Use existing 1 clones
  Initial partition of walkers 0 1 
  Total Sample Size   =51200
  Walker distribution on root = 0 1 
====================================================
  SimpleFixedNodeBranch::finalize after a VMC block
    QMC counter        = 1
    time step          = 0.5
    reference energy   = -17.2112
    reference variance = 0.496038
====================================================
  Execution time = 3.6620039610e+00
</vmc>
<opt stage="setup">
  <log>
   Reading configurations from h5FileRoot jopt-h2o.s001
  QMCCostFunctionOMP is created with 1
   Loading configuration from MCWalkerConfiguration::SampleStack 
    number of walkers before load 1
  Using Nonlocal PP in Opt: NonLocalECP
    number of walkers after load: 160 
Using buffers for temporary storage in QMCCostFunction.

Memory usage: 
Linear method (approx matrix usage: 4*N^2): 2.8037120000e+00 MB
Deriv,HDerivRecord:      1.1366400000e+00 MB
Buffer memory cost:     MB/walker       MB/total 
Orbitals only:           2.3040000000e-03      3.6864000000e-01
Orbitals + dervs:        1.1520000000e-02      1.8432000000e+00
Inverse:                 2.5600000000e-04      4.0960000000e-02
Determinants:            3.3728000000e-02      5.3964800000e+00
  VMC Eavg = -1.6819137224e+01
  VMC Evar = 1.4432347835e+00
  Total weights = 5.1200000000e+04
  Execution time = 5.2853800300e-01
  </log>
</opt>
<opt stage="main" walkers="51200">
  <log>
Iteration: 1/1
od_largest 7.5616538739e+08
  stabilityBase -6.0000000000e+00
  stabilizerScale 2.0000000000e+00
  Using XS:-6.0000000000e+00 0 0
ERROR CostFunction-> Number of Effective Walkers is too small 1.0029901749e+00 NumWalkersEff/NumSamples 1.9589651854e-05
ERROR CostFunction-> Number of Effective Walkers is too small 1.6994717227e+02 NumWalkersEff/NumSamples 3.3192807085e-03
ERROR CostFunction-> Number of Effective Walkers is too small 1.0000060127e+00 NumWalkersEff/NumSamples 1.9531367436e-05
ERROR CostFunction-> Number of Effective Walkers is too small 1.0000000398e+00 NumWalkersEff/NumSamples 1.9531250777e-05
ERROR CostFunction-> Number of Effective Walkers is too small 1.0000000004e+00 NumWalkersEff/NumSamples 1.9531250007e-05
ERROR CostFunction-> Number of Effective Walkers is too small 1.0000000000e+00 NumWalkersEff/NumSamples 1.9531250000e-05
  Failed Step. Largest LM parameter change:8.7659285566e+01
ERROR   Using XS:-4.0000000000e+00 1 0
ERROR CostFunction-> Number of Effective Walkers is too small 1.0028966616e+00 NumWalkersEff/NumSamples 1.9587825421e-05
ERROR CostFunction-> Number of Effective Walkers is too small 1.6755979521e+02 NumWalkersEff/NumSamples 3.2726522503e-03
ERROR CostFunction-> Number of Effective Walkers is too small 1.0000057677e+00 NumWalkersEff/NumSamples 1.9531362650e-05
ERROR CostFunction-> Number of Effective Walkers is too small 1.0000000376e+00 NumWalkersEff/NumSamples 1.9531250734e-05
ERROR CostFunction-> Number of Effective Walkers is too small 1.0000000003e+00 NumWalkersEff/NumSamples 1.9531250007e-05
ERROR CostFunction-> Number of Effective Walkers is too small 1.0000000000e+00 NumWalkersEff/NumSamples 1.9531250000e-05
  Failed Step. Largest LM parameter change:8.8013085559e+01
ERROR   Using XS:-2.0000000000e+00 2 0
ERROR CostFunction-> Number of Effective Walkers is too small 1.0022449294e+00 NumWalkersEff/NumSamples 1.9575096278e-05
ERROR CostFunction-> Number of Effective Walkers is too small 1.4956607363e+02 NumWalkersEff/NumSamples 2.9212123755e-03
ERROR CostFunction-> Number of Effective Walkers is too small 1.0000041163e+00 NumWalkersEff/NumSamples 1.9531330397e-05
ERROR CostFunction-> Number of Effective Walkers is too small 1.0000000238e+00 NumWalkersEff/NumSamples 1.9531250464e-05
ERROR CostFunction-> Number of Effective Walkers is too small 1.0000000002e+00 NumWalkersEff/NumSamples 1.9531250004e-05
ERROR CostFunction-> Number of Effective Walkers is too small 1.0000000000e+00 NumWalkersEff/NumSamples 1.9531250000e-05
  Failed Step. Largest LM parameter change:9.0898071551e+01
ERROR   Using XS:0.0000000000e+00 3 0
ERROR CostFunction-> Number of Effective Walkers is too small 4.5520599380e+01 NumWalkersEff/NumSamples 8.8907420664e-04
ERROR CostFunction-> Number of Effective Walkers is too small 1.1015203940e+00 NumWalkersEff/NumSamples 2.1514070195e-05
ERROR CostFunction-> Number of Effective Walkers is too small 1.0000003334e+00 NumWalkersEff/NumSamples 1.9531256512e-05
ERROR CostFunction-> Number of Effective Walkers is too small 1.0000000035e+00 NumWalkersEff/NumSamples 1.9531250068e-05
ERROR CostFunction-> Number of Effective Walkers is too small 1.0000038453e+00 NumWalkersEff/NumSamples 1.9531325104e-05
ERROR CostFunction-> Number of Effective Walkers is too small 1.0000003334e+00 NumWalkersEff/NumSamples 1.9531256512e-05
  Failed Step. Largest LM parameter change:2.5266539631e+02
ERROR   Using XS:2.0000000000e+00 4 0
ERROR CostFunction-> Number of Effective Walkers is too small 1.4603540447e+01 NumWalkersEff/NumSamples 2.8522539936e-04
ERROR CostFunction-> Number of Effective Walkers is too small 3.8234336622e+02 NumWalkersEff/NumSamples 7.4676438714e-03
ERROR CostFunction-> Number of Effective Walkers is too small 2.7802005965e+00 NumWalkersEff/NumSamples 5.4300792900e-05
ERROR CostFunction-> Number of Effective Walkers is too small 1.3802943446e+00 NumWalkersEff/NumSamples 2.6958873918e-05
ERROR CostFunction-> Number of Effective Walkers is too small 8.1107504246e+00 NumWalkersEff/NumSamples 1.5841309423e-04
ERROR CostFunction-> Number of Effective Walkers is too small 2.7802005965e+00 NumWalkersEff/NumSamples 5.4300792900e-05
  Failed Step. Largest LM parameter change:2.4639885295e+01
ERROR   Using XS:4.0000000000e+00 5 0
  Good Step. Largest LM parameter change:1.5566827365e+00
 OldCost: -1.6358646541e+01 NewCost: -1.6381133746e+01 Delta Cost:-2.2487204776e-02
      Current ene:     -1.7253828681e+01
      Current var:     2.0007001445e-01
      Current ene_urw:     -1.7248898989e+01
      Current var_urw: 2.0529260561e-01
Setting new Parameters
ERROR   Execution time = 1.3360077790e+01
  </log>
  <optVariables href="jopt-h2o.s001.opt.xml">
CSFcoeff_1 -4.4375257564e-02 3 1  ON 0
CSFcoeff_2 3.8106348777e-02 3 1  ON 1
CSFcoeff_3 -2.8501189259e-02 3 1  ON 2
CSFcoeff_4 2.5073629985e-02 3 1  ON 3
CSFcoeff_5 -2.5667940838e-02 3 1  ON 4
CSFcoeff_6 -2.9065214761e-02 3 1  ON 5
CSFcoeff_7 1.8709937086e-02 3 1  ON 6
CSFcoeff_8 2.0113175167e-02 3 1  ON 7
CSFcoeff_9 -2.2729056223e-02 3 1  ON 8
CSFcoeff_10 -2.2727445836e-02 3 1  ON 9
CSFcoeff_11 -2.0269289939e-02 3 1  ON 10
CSFcoeff_12 1.9891899924e-02 3 1  ON 11
CSFcoeff_13 2.9811397740e-02 3 1  ON 12
CSFcoeff_14 -2.1217053134e-02 3 1  ON 13
CSFcoeff_15 -2.0167435180e-02 3 1  ON 14
CSFcoeff_16 -2.0155771567e-02 3 1  ON 15
CSFcoeff_17 1.7024280508e-02 3 1  ON 16
CSFcoeff_18 -1.8413099998e-02 3 1  ON 17
CSFcoeff_19 -2.0813031954e-02 3 1  ON 18
CSFcoeff_20 -1.6042561530e-02 3 1  ON 19
CSFcoeff_21 2.0211237054e-02 3 1  ON 20
CSFcoeff_22 -2.0284685086e-02 3 1  ON 21
CSFcoeff_23 1.7247801188e-02 3 1  ON 22
CSFcoeff_24 -1.7839146300e-02 3 1  ON 23
CSFcoeff_25 1.5432174793e-02 3 1  ON 24
CSFcoeff_26 8.1493188117e-03 3 1  ON 25
CSFcoeff_27 -1.3236987862e-02 3 1  ON 26
CSFcoeff_28 8.6878036221e-03 3 1  ON 27
CSFcoeff_29 -1.5945929072e-02 3 1  ON 28
CSFcoeff_30 1.3638831312e-02 3 1  ON 29
CSFcoeff_31 -1.4188104002e-02 3 1  ON 30
CSFcoeff_32 -1.2191299897e-02 3 1  ON 31
CSFcoeff_33 1.1873958083e-02 3 1  ON 32
CSFcoeff_34 -1.1038562949e-02 3 1  ON 33
CSFcoeff_35 1.3661507691e-02 3 1  ON 34
CSFcoeff_36 -1.0935879660e-02 3 1  ON 35
CSFcoeff_37 1.4193672305e-02 3 1  ON 36
CSFcoeff_38 -1.1406013600e-02 3 1  ON 37
CSFcoeff_39 1.0495795914e-02 3 1  ON 38
CSFcoeff_40 -1.3120413606e-02 3 1  ON 39
CSFcoeff_41 7.8212790908e-03 3 1  ON 40
CSFcoeff_42 -6.6940876899e-03 3 1  ON 41
CSFcoeff_43 1.2740138182e-02 3 1  ON 42
CSFcoeff_44 -1.0464600402e-02 3 1  ON 43
CSFcoeff_45 -1.7445527573e-02 3 1  ON 44
CSFcoeff_46 -6.3229297383e-03 3 1  ON 45
CSFcoeff_47 1.1924652272e-02 3 1  ON 46
CSFcoeff_48 -9.2235792411e-03 3 1  ON 47
CSFcoeff_49 1.0189538178e-02 3 1  ON 48
CSFcoeff_50 -7.5695725235e-03 3 1  ON 49
CSFcoeff_51 -5.7622178705e-03 3 1  ON 50
CSFcoeff_52 -7.4746815823e-03 3 1  ON 51
CSFcoeff_53 -5.5361431169e-03 3 1  ON 52
CSFcoeff_54 -9.1183231273e-03 3 1  ON 53
CSFcoeff_55 7.2270342243e-03 3 1  ON 54
CSFcoeff_56 5.2962983975e-03 3 1  ON 55
CSFcoeff_57 -8.8131012382e-03 3 1  ON 56
CSFcoeff_58 -8.1739799161e-03 3 1  ON 57
CSFcoeff_59 8.7373556960e-03 3 1  ON 58
CSFcoeff_60 -5.4331663676e-03 3 1  ON 59
CSFcoeff_61 8.4585046442e-03 3 1  ON 60
CSFcoeff_62 -6.4858890209e-03 3 1  ON 61
CSFcoeff_63 5.9486957684e-03 3 1  ON 62
CSFcoeff_64 8.5294834378e-03 3 1  ON 63
CSFcoeff_65 -7.0594464134e-03 3 1  ON 64
CSFcoeff_66 -6.5789287526e-03 3 1  ON 65
CSFcoeff_67 7.3557165280e-03 3 1  ON 66
CSFcoeff_68 -7.0793233411e-03 3 1  ON 67
CSFcoeff_69 -6.6888943438e-03 3 1  ON 68
CSFcoeff_70 -8.8688997709e-03 3 1  ON 69
CSFcoeff_71 4.6437531398e-03 3 1  ON 70
CSFcoeff_72 -7.6867581628e-03 3 1  ON 71
CSFcoeff_73 -5.7030538469e-03 3 1  ON 72
CSFcoeff_74 7.1782270845e-03 3 1  ON 73
CSFcoeff_75 -5.3030309031e-03 3 1  ON 74
CSFcoeff_76 -8.2707192054e-03 3 1  ON 75
CSFcoeff_77 7.0639450190e-03 3 1  ON 76
CSFcoeff_78 1.2654766381e-02 3 1  ON 77
CSFcoeff_79 5.4528051931e-03 3 1  ON 78
CSFcoeff_80 -5.5569908078e-03 3 1  ON 79
CSFcoeff_81 -5.8832582131e-03 3 1  ON 80
CSFcoeff_82 -5.3600939476e-03 3 1  ON 81
CSFcoeff_83 6.0302247050e-03 3 1  ON 82
CSFcoeff_84 3.8400455719e-03 3 1  ON 83
CSFcoeff_85 8.2638561499e-03 3 1  ON 84
CSFcoeff_86 4.7291586625e-03 3 1  ON 85
CSFcoeff_87 6.3132850987e-03 3 1  ON 86
CSFcoeff_88 -6.4252019437e-03 3 1  ON 87
CSFcoeff_89 4.5527852396e-03 3 1  ON 88
CSFcoeff_90 -5.8211982013e-03 3 1  ON 89
CSFcoeff_91 6.6813205731e-03 3 1  ON 90
CSFcoeff_92 2.9912438994e-03 3 1  ON 91
CSFcoeff_93 3.8437243554e-03 3 1  ON 92
CSFcoeff_94 6.8859829412e-03 3 1  ON 93
CSFcoeff_95 -7.6693723628e-03 3 1  ON 94
CSFcoeff_96 -4.8637152324e-03 3 1  ON 95
CSFcoeff_97 2.9921070941e-03 3 1  ON 96
CSFcoeff_98 -3.6579642817e-03 3 1  ON 97
CSFcoeff_99 7.7213265257e-03 3 1  ON 98
CSFcoeff_100 8.9233357365e-03 3 1  ON 99
CSFcoeff_101 -8.4220105393e-03 3 1  ON 100
CSFcoeff_102 3.4851819630e-03 3 1  ON 101
CSFcoeff_103 4.0008360057e-03 3 1  ON 102
CSFcoeff_104 -5.3931871576e-03 3 1  ON 103
CSFcoeff_105 -3.6659653851e-03 3 1  ON 104
CSFcoeff_106 -4.5052198482e-03 3 1  ON 105
CSFcoeff_107 7.0911037650e-03 3 1  ON 106
CSFcoeff_108 -4.8872414740e-03 3 1  ON 107
CSFcoeff_109 5.7972987703e-03 3 1  ON 108
CSFcoeff_110 -3.8422322346e-03 3 1  ON 109
CSFcoeff_111 4.2845115711e-03 3 1  ON 110
CSFcoeff_112 5.8357406627e-03 3 1  ON 111
CSFcoeff_113 -7.4963348600e-03 3 1  ON 112
CSFcoeff_114 5.3023522637e-03 3 1  ON 113
CSFcoeff_115 5.1242350116e-03 3 1  ON 114
CSFcoeff_116 6.9659358398e-03 3 1  ON 115
CSFcoeff_117 -6.3960825193e-03 3 1  ON 116
CSFcoeff_118 6.6776546141e-03 3 1  ON 117
CSFcoeff_119 -4.0411832889e-03 3 1  ON 118
CSFcoeff_120 6.8689387660e-03 3 1  ON 119
CSFcoeff_121 5.6528349090e-03 3 1  ON 120
CSFcoeff_122 -5.2576989434e-03 3 1  ON 121
CSFcoeff_123 -7.0617069052e-03 3 1  ON 122
CSFcoeff_124 4.7585331884e-03 3 1  ON 123
CSFcoeff_125 -1.9626015962e-03 3 1  ON 124
CSFcoeff_126 6.4276855155e-03 3 1  ON 125
CSFcoeff_127 4.5072230653e-03 3 1  ON 126
CSFcoeff_128 -2.2025899994e-03 3 1  ON 127
CSFcoeff_129 6.9131152231e-03 3 1  ON 128
CSFcoeff_130 -5.7572149179e-03 3 1  ON 129
CSFcoeff_131 -4.5001330024e-03 3 1  ON 130
CSFcoeff_132 -5.9224129770e-03 3 1  ON 131
CSFcoeff_133 -5.5268664384e-03 3 1  ON 132
CSFcoeff_134 2.2029329435e-03 3 1  ON 133
CSFcoeff_135 2.5752994178e-03 3 1  ON 134
CSFcoeff_136 5.9018112690e-03 3 1  ON 135
CSFcoeff_137 -4.8406266822e-03 3 1  ON 136
CSFcoeff_138 -4.7103927098e-03 3 1  ON 137
CSFcoeff_139 -3.0913265648e-03 3 1  ON 138
CSFcoeff_140 3.5070191261e-03 3 1  ON 139
CSFcoeff_141 -3.1393602623e-03 3 1  ON 140
CSFcoeff_142 -3.4456337375e-03 3 1  ON 141
CSFcoeff_143 -8.3775125591e-03 3 1  ON 142
CSFcoeff_144 4.3642106645e-03 3 1  ON 143
CSFcoeff_145 -4.1496820877e-03 3 1  ON 144
CSFcoeff_146 -2.5478526033e-03 3 1  ON 145
CSFcoeff_147 2.8974751576e-03 3 1  ON 146
CSFcoeff_148 -3.7720687576e-03 3 1  ON 147
CSFcoeff_149 2.0644044038e-03 3 1  ON 148
CSFcoeff_150 3.9315409734e-03 3 1  ON 149
CSFcoeff_151 -7.3046213736e-03 3 1  ON 150
CSFcoeff_152 -3.9310069051e-03 3 1  ON 151
uu_0 2.5399789971e-01 1 1  ON 152
uu_1 1.4172364100e-01 1 1  ON 153
uu_2 7.0660283084e-02 1 1  ON 154
uu_3 5.4563219398e-02 1 1  ON 155
uu_4 3.9745586957e-02 1 1  ON 156
uu_5 3.2400347316e-02 1 1  ON 157
uu_6 2.7102103398e-02 1 1  ON 158
uu_7 3.2775660101e-02 1 1  ON 159
uu_8 1.5266651732e-02 1 1  ON 160
uu_9 1.1793545542e-02 1 1  ON 161
ud_0 4.4326296136e-01 1 1  ON 162
ud_1 1.8763274424e-01 1 1  ON 163
ud_2 8.8722279115e-02 1 1  ON 164
ud_3 7.0690822806e-02 1 1  ON 165
ud_4 4.9965704268e-02 1 1  ON 166
ud_5 4.3879241852e-02 1 1  ON 167
ud_6 3.5968901560e-02 1 1  ON 168
ud_7 2.8362396077e-02 1 1  ON 169
ud_8 2.8202624559e-02 1 1  ON 170
ud_9 2.5173687481e-02 1 1  ON 171
eO_0 -6.9972046960e+00 1 1  ON 172
eO_1 -6.7728154060e+00 1 1  ON 173
eO_2 -6.2791210541e+00 1 1  ON 174
eO_3 -5.8866157556e+00 1 1  ON 175
eO_4 -5.6839572284e+00 1 1  ON 176
eO_5 -5.5812228718e+00 1 1  ON 177
eO_6 -5.5426917748e+00 1 1  ON 178
eO_7 -5.5713151455e+00 1 1  ON 179
eO_8 -5.5940992124e+00 1 1  ON 180
eO_9 -6.0237015768e+00 1 1  ON 181
eH_0 -3.2556913607e-01 1 1  ON 182
eH_1 -3.1032468240e-01 1 1  ON 183
eH_2 -3.1115886101e-01 1 1  ON 184
eH_3 -2.6822076044e-01 1 1  ON 185
eH_4 -2.2281816560e-01 1 1  ON 186
eH_5 -2.0930556229e-01 1 1  ON 187
eH_6 -2.1920144751e-01 1 1  ON 188
eH_7 -2.1331079217e-01 1 1  ON 189
eH_8 -1.9055999144e-01 1 1  ON 190
eH_9 -1.9256133020e-01 1 1  ON 191
uuO_0 1.4878056077e-05 1 1  ON 192
uuO_1 3.8508593645e-06 1 1  ON 193
uuO_2 -2.9961854867e-05 1 1  ON 194
uuO_3 -1.8636012630e-05 1 1  ON 195
uuO_4 -8.0618310730e-07 1 1  ON 196
uuO_5 3.0946659919e-06 1 1  ON 197
uuO_6 -1.5515754908e-05 1 1  ON 198
uuO_7 -3.5497746676e-05 1 1  ON 199
uuO_8 -1.9931454966e-05 1 1  ON 200
uuO_9 6.4830937264e-06 1 1  ON 201
uuO_10 -2.0486993944e-05 1 1  ON 202
uuO_11 4.9817837228e-05 1 1  ON 203
uuO_12 -1.0423697701e-06 1 1  ON 204
uuO_13 2.3616729599e-05 1 1  ON 205
uuO_14 -1.1256299883e-06 1 1  ON 206
uuO_15 2.4176590304e-07 1 1  ON 207
uuO_16 -1.3674268418e-05 1 1  ON 208
uuO_17 4.4937135634e-05 1 1  ON 209
uuO_18 -4.6212838309e-05 1 1  ON 210
uuO_19 5.9213241817e-06 1 1  ON 211
uuO_20 -8.7061697785e-06 1 1  ON 212
uuO_21 6.0300216997e-06 1 1  ON 213
uuO_22 -1.1282902547e-06 1 1  ON 214
uuO_23 3.6899724070e-06 1 1  ON 215
uuO_24 -1.2796856776e-06 1 1  ON 216
uuO_25 2.5910403967e-07 1 1  ON 217
udO_0 6.3097059323e-07 1 1  ON 218
udO_1 2.5245733903e-05 1 1  ON 219
udO_2 1.2484633185e-05 1 1  ON 220
udO_3 -9.0814916106e-06 1 1  ON 221
udO_4 -3.3530020157e-06 1 1  ON 222
udO_5 -3.3485042052e-07 1 1  ON 223
udO_6 5.5879225089e-05 1 1  ON 224
udO_7 -4.3300238731e-05 1 1  ON 225
udO_8 2.9993976984e-06 1 1  ON 226
udO_9 -3.2755115141e-05 1 1  ON 227
udO_10 -8.0740763371e-06 1 1  ON 228
udO_11 1.6552871506e-05 1 1  ON 229
udO_12 -2.9748743083e-06 1 1  ON 230
udO_13 1.1545845871e-05 1 1  ON 231
udO_14 -1.9893595522e-06 1 1  ON 232
udO_15 5.2419552106e-07 1 1  ON 233
udO_16 5.2185817646e-05 1 1  ON 234
udO_17 3.2307153465e-06 1 1  ON 235
udO_18 -1.6736058847e-05 1 1  ON 236
udO_19 4.1083304204e-06 1 1  ON 237
udO_20 -1.5903957680e-05 1 1  ON 238
udO_21 4.1140708478e-06 1 1  ON 239
udO_22 -9.8679801387e-07 1 1  ON 240
udO_23 5.0667353295e-06 1 1  ON 241
udO_24 -1.2830425902e-06 1 1  ON 242
udO_25 2.7485798404e-07 1 1  ON 243
uuH_0 -4.5216078559e-07 1 1  ON 244
uuH_1 3.1726507544e-05 1 1  ON 245
uuH_2 1.1952323948e-05 1 1  ON 246
uuH_3 -1.2870501725e-05 1 1  ON 247
uuH_4 -4.5476850079e-06 1 1  ON 248
uuH_5 -2.5283912308e-06 1 1  ON 249
uuH_6 5.0175485729e-05 1 1  ON 250
uuH_7 -2.5409994205e-05 1 1  ON 251
uuH_8 9.2393159493e-06 1 1  ON 252
uuH_9 -3.0485756223e-05 1 1  ON 253
uuH_10 -1.0263348250e-05 1 1  ON 254
uuH_11 6.7061999894e-06 1 1  ON 255
uuH_12 -3.7117666122e-06 1 1  ON 256
uuH_13 1.6501607973e-05 1 1  ON 257
uuH_14 8.5648049144e-07 1 1  ON 258
uuH_15 2.6578460942e-07 1 1  ON 259
uuH_16 2.7676112307e-05 1 1  ON 260
uuH_17 8.7900289921e-06 1 1  ON 261
uuH_18 -6.2458580083e-06 1 1  ON 262
uuH_19 2.2250520143e-06 1 1  ON 263
uuH_20 -1.0055726957e-05 1 1  ON 264
uuH_21 9.8556359233e-07 1 1  ON 265
uuH_22 -3.1455166270e-07 1 1  ON 266
uuH_23 2.6671482668e-06 1 1  ON 267
uuH_24 -3.4800225630e-07 1 1  ON 268
uuH_25 6.9262805687e-08 1 1  ON 269
udH_0 9.7649751232e-07 1 1  ON 270
udH_1 -4.3783147254e-06 1 1  ON 271
udH_2 2.6152237612e-06 1 1  ON 272
udH_3 1.8925785339e-07 1 1  ON 273
udH_4 -8.6344463837e-07 1 1  ON 274
udH_5 2.3172229713e-07 1 1  ON 275
udH_6 -2.3935611780e-06 1 1  ON 276
udH_7 -4.8012625600e-06 1 1  ON 277
udH_8 1.5052984110e-06 1 1  ON 278
udH_9 1.1671846082e-06 1 1  ON 279
udH_10 6.3947564740e-07 1 1  ON 280
udH_11 -1.0905566419e-06 1 1  ON 281
udH_12 -4.2501833217e-07 1 1  ON 282
udH_13 1.5958033383e-06 1 1  ON 283
udH_14 -4.4442653495e-07 1 1  ON 284
udH_15 1.1133015496e-07 1 1  ON 285
udH_16 4.3738249742e-06 1 1  ON 286
udH_17 -3.2209981473e-06 1 1  ON 287
udH_18 1.2327390601e-06 1 1  ON 288
udH_19 1.8420029746e-07 1 1  ON 289
udH_20 -2.2183695727e-06 1 1  ON 290
udH_21 4.1845640990e-07 1 1  ON 291
udH_22 -1.1615837289e-07 1 1  ON 292
udH_23 8.3690267728e-07 1 1  ON 293
udH_24 -2.2799134750e-07 1 1  ON 294
udH_25 4.6583662368e-08 1 1  ON 295
  </optVariables>
   Restore the number of walkers to 1, removing 159 walkers.
</opt>
</optimization-report>
  QMC Execution time = 1.3380029737e+01 secs 
  Reusing QMCFixedSampleLinearOptimize
 Using QMCCostFunctionOMP::QMCCostFunctionOMP

=========================================================
  Start QMCFixedSampleLinearOptimize
  File Root jopt-h2o.s002 append = no 
=========================================================
  Skip QMCDriver::putQMCInfo 
  Resetting Properties of the walkers 1 x 14

=========================================================
  Start VMCSingleOMP
  File Root jopt-h2o.s002 append = no 
=========================================================
Using existing walkers 
  Resetting Properties of the walkers 1 x 14

<vmc function="put">
  qmc_counter=2  my_counter=2
  time step      = 5.0000000000e-01
  blocks         = 100
  steps          = 2
  substeps       = 20
  current        = 0
  target samples = 5.1200000000e+04
  walkers/mpi    = 1

  stepsbetweensamples = 1
<parameter name="blocks" condition="int">100</parameter>
<parameter name="check_properties" condition="int">100</parameter>
<parameter name="checkproperties" condition="int">100</parameter>
<parameter name="current" condition="int">0</parameter>
<parameter name="dmcwalkersperthread" condition="real">1.6000000000e+02</parameter>
<parameter name="maxcpusecs" condition="real">3.6000000000e+05</parameter>
<parameter name="record_configs" condition="int">0</parameter>
<parameter name="record_walkers" condition="int">1</parameter>
<parameter name="recordconfigs" condition="int">0</parameter>
<parameter name="recordwalkers" condition="int">1</parameter>
<parameter name="rewind" condition="int">0</parameter>
<parameter name="samples" condition="real">5.1200000000e+04</parameter>
<parameter name="samplesperthread" condition="real">1.6000000000e+02</parameter>
<parameter name="steps" condition="int">2</parameter>
<parameter name="stepsbetweensamples" condition="int">1</parameter>
<parameter name="store_configs" condition="int">0</parameter>
<parameter name="storeconfigs" condition="int">0</parameter>
<parameter name="sub_steps" condition="int">20</parameter>
<parameter name="substeps" condition="int">20</parameter>
<parameter name="tau" condition="au">5.0000000000e-01</parameter>
<parameter name="time_step" condition="au">5.0000000000e-01</parameter>
<parameter name="timestep" condition="au">5.0000000000e-01</parameter>
<parameter name="use_drift" condition="string">yes</parameter>
<parameter name="usedrift" condition="string">yes</parameter>
<parameter name="walkers" condition="int">1</parameter>
<parameter name="warmup_steps" condition="int">25</parameter>
<parameter name="warmupsteps" condition="int">25</parameter>
  DumpConfig==false Nothing (configurations, state) will be saved.
  Walker Samples are dumped every 1 steps.
</vmc>
  EstimatorManager::add replace LocalEnergy estimator.
  EstimatorManager::add replace LocalEnergy estimator.
<optimization-report>
<vmc stage="main" blocks="100">
  Cannot make clones again. Use existing 1 clones
  Initial partition of walkers 0 1 
  Total Sample Size   =51200
  Walker distribution on root = 0 1 
====================================================
  SimpleFixedNodeBranch::finalize after a VMC block
    QMC counter        = 2
    time step          = 0.5
    reference energy   = -17.239
    reference variance = 0.432879
====================================================
  Execution time = 3.6642643280e+00
</vmc>
<opt stage="setup">
  <log>
   Reading configurations from h5FileRoot jopt-h2o.s002
  QMCCostFunctionOMP is created with 1
   Loading configuration from MCWalkerConfiguration::SampleStack 
    number of walkers before load 1
  Using Nonlocal PP in Opt: NonLocalECP
    number of walkers after load: 160 
Using buffers for temporary storage in QMCCostFunction.

Memory usage: 
Linear method (approx matrix usage: 4*N^2): 2.8037120000e+00 MB
Deriv,HDerivRecord:      1.1366400000e+00 MB
Buffer memory cost:     MB/walker       MB/total 
Orbitals only:           2.3040000000e-03      3.6864000000e-01
Orbitals + dervs:        1.1520000000e-02      1.8432000000e+00
Inverse:                 2.5600000000e-04      4.0960000000e-02
Determinants:            3.3728000000e-02      5.3964800000e+00
  VMC Eavg = -1.5188374227e+01
  VMC Evar = 2.3363359582e+01
  Total weights = 5.1200000000e+04
  Execution time = 5.3008698901e-01
  </log>
</opt>
<opt stage="main" walkers="51200">
  <log>
Iteration: 1/1
od_largest 5.0312005123e+08
  stabilityBase -6.0000000000e+00
  stabilizerScale 2.0000000000e+00
  Using XS:-6.0000000000e+00 0 0
ERROR CostFunction-> Number of Effective Walkers is too small 1.0000124140e+00 NumWalkersEff/NumSamples 1.9531492461e-05
ERROR CostFunction-> Number of Effective Walkers is too small 5.2714036234e+02 NumWalkersEff/NumSamples 1.0295710202e-02
ERROR CostFunction-> Number of Effective Walkers is too small 1.0000000000e+00 NumWalkersEff/NumSamples 1.9531250001e-05
ERROR CostFunction-> Number of Effective Walkers is too small 1.0000000000e+00 NumWalkersEff/NumSamples 1.9531250000e-05
ERROR CostFunction-> Number of Effective Walkers is too small 1.0000000000e+00 NumWalkersEff/NumSamples 1.9531250000e-05
ERROR CostFunction-> Number of Effective Walkers is too small 1.0000000000e+00 NumWalkersEff/NumSamples 1.9531250000e-05
  Failed Step. Largest LM parameter change:1.1002245829e+03
ERROR   Using XS:-4.0000000000e+00 1 0
ERROR CostFunction-> Number of Effective Walkers is too small 1.0000123506e+00 NumWalkersEff/NumSamples 1.9531491222e-05
ERROR CostFunction-> Number of Effective Walkers is too small 5.2657262780e+02 NumWalkersEff/NumSamples 1.0284621637e-02
ERROR CostFunction-> Number of Effective Walkers is too small 1.0000000000e+00 NumWalkersEff/NumSamples 1.9531250001e-05
ERROR CostFunction-> Number of Effective Walkers is too small 1.0000000000e+00 NumWalkersEff/NumSamples 1.9531250000e-05
ERROR CostFunction-> Number of Effective Walkers is too small 1.0000000000e+00 NumWalkersEff/NumSamples 1.9531250000e-05
ERROR CostFunction-> Number of Effective Walkers is too small 1.0000000000e+00 NumWalkersEff/NumSamples 1.9531250000e-05
  Failed Step. Largest LM parameter change:1.1006214749e+03
ERROR   Using XS:-2.0000000000e+00 2 0
ERROR CostFunction-> Number of Effective Walkers is too small 1.0000118587e+00 NumWalkersEff/NumSamples 1.9531481615e-05
ERROR CostFunction-> Number of Effective Walkers is too small 5.2209607671e+02 NumWalkersEff/NumSamples 1.0197188998e-02
ERROR CostFunction-> Number of Effective Walkers is too small 1.0000000000e+00 NumWalkersEff/NumSamples 1.9531250001e-05
ERROR CostFunction-> Number of Effective Walkers is too small 1.0000000000e+00 NumWalkersEff/NumSamples 1.9531250000e-05
ERROR CostFunction-> Number of Effective Walkers is too small 1.0000000000e+00 NumWalkersEff/NumSamples 1.9531250000e-05
ERROR CostFunction-> Number of Effective Walkers is too small 1.0000000000e+00 NumWalkersEff/NumSamples 1.9531250000e-05
  Failed Step. Largest LM parameter change:1.1037725605e+03
ERROR   Using XS:0.0000000000e+00 3 0
ERROR CostFunction-> Number of Effective Walkers is too small 5.8028901566e+00 NumWalkersEff/NumSamples 1.1333769837e-04
ERROR CostFunction-> Number of Effective Walkers is too small 1.0000127099e+00 NumWalkersEff/NumSamples 1.9531498240e-05
ERROR CostFunction-> Number of Effective Walkers is too small 1.0000000142e+00 NumWalkersEff/NumSamples 1.9531250278e-05
ERROR CostFunction-> Number of Effective Walkers is too small 1.0000000000e+00 NumWalkersEff/NumSamples 1.9531250000e-05
ERROR CostFunction-> Number of Effective Walkers is too small 1.0000000000e+00 NumWalkersEff/NumSamples 1.9531250000e-05
ERROR CostFunction-> Number of Effective Walkers is too small 1.0000000000e+00 NumWalkersEff/NumSamples 1.9531250000e-05
  Failed Step. Largest LM parameter change:1.5964080780e+03
ERROR   Using XS:2.0000000000e+00 4 0
  Good Step. Largest LM parameter change:1.8908495530e+00
 OldCost: -1.6380549697e+01 NewCost: -1.6388935225e+01 Delta Cost:-8.3855275634e-03
      Current ene:     -1.7259709602e+01
      Current var:     1.5577793586e-01
      Current ene_urw:     -1.7257658020e+01
      Current var_urw: 1.5873878253e-01
Setting new Parameters
ERROR   Execution time = 1.1906157672e+01
  </log>
  <optVariables href="jopt-h2o.s002.opt.xml">
CSFcoeff_1 -3.7377740952e-02 3 1  ON 0
CSFcoeff_2 2.9523111574e-02 3 1  ON 1
CSFcoeff_3 -1.9516608903e-02 3 1  ON 2
CSFcoeff_4 1.9394248044e-02 3 1  ON 3
CSFcoeff_5 -2.0410012330e-02 3 1  ON 4
CSFcoeff_6 -2.3870047075e-02 3 1  ON 5
CSFcoeff_7 1.0449170523e-02 3 1  ON 6
CSFcoeff_8 1.2349877280e-02 3 1  ON 7
CSFcoeff_9 -1.8764633747e-02 3 1  ON 8
CSFcoeff_10 -1.7896042729e-02 3 1  ON 9
CSFcoeff_11 -1.4449217885e-02 3 1  ON 10
CSFcoeff_12 1.4710409872e-02 3 1  ON 11
CSFcoeff_13 3.1360982413e-02 3 1  ON 12
CSFcoeff_14 -1.5543546918e-02 3 1  ON 13
CSFcoeff_15 -1.7326454786e-02 3 1  ON 14
CSFcoeff_16 -1.5622948344e-02 3 1  ON 15
CSFcoeff_17 1.2321813705e-02 3 1  ON 16
CSFcoeff_18 -1.5395920121e-02 3 1  ON 17
CSFcoeff_19 -1.9377512275e-02 3 1  ON 18
CSFcoeff_20 -1.0664186172e-02 3 1  ON 19
CSFcoeff_21 1.4598824235e-02 3 1  ON 20
CSFcoeff_22 -1.4476292928e-02 3 1  ON 21
CSFcoeff_23 1.2485992511e-02 3 1  ON 22
CSFcoeff_24 -1.1723441771e-02 3 1  ON 23
CSFcoeff_25 9.2938890592e-03 3 1  ON 24
CSFcoeff_26 2.6557835661e-03 3 1  ON 25
CSFcoeff_27 -8.2768062390e-03 3 1  ON 26
CSFcoeff_28 1.5695238081e-03 3 1  ON 27
CSFcoeff_29 -1.2477245122e-02 3 1  ON 28
CSFcoeff_30 8.9166073891e-03 3 1  ON 29
CSFcoeff_31 -1.1383186394e-02 3 1  ON 30
CSFcoeff_32 -6.3080392945e-03 3 1  ON 31
CSFcoeff_33 8.0259425764e-03 3 1  ON 32
CSFcoeff_34 -7.8309702848e-03 3 1  ON 33
CSFcoeff_35 1.0711352491e-02 3 1  ON 34
CSFcoeff_36 -4.7850704187e-03 3 1  ON 35
CSFcoeff_37 1.1246841234e-02 3 1  ON 36
CSFcoeff_38 -7.5565147331e-03 3 1  ON 37
CSFcoeff_39 7.7126493314e-03 3 1  ON 38
CSFcoeff_40 -1.2255882300e-02 3 1  ON 39
CSFcoeff_41 5.6844992303e-03 3 1  ON 40
CSFcoeff_42 -4.8134411222e-03 3 1  ON 41
CSFcoeff_43 1.0638508404e-02 3 1  ON 42
CSFcoeff_44 -7.0897874287e-03 3 1  ON 43
CSFcoeff_45 -2.0988895217e-02 3 1  ON 44
CSFcoeff_46 -2.8500733362e-03 3 1  ON 45
CSFcoeff_47 8.6752949647e-03 3 1  ON 46
CSFcoeff_48 -8.9016529560e-03 3 1  ON 47
CSFcoeff_49 7.9378085728e-03 3 1  ON 48
CSFcoeff_50 -3.6377500293e-03 3 1  ON 49
CSFcoeff_51 -1.6653269617e-03 3 1  ON 50
CSFcoeff_52 -4.4627707111e-03 3 1  ON 51
CSFcoeff_53 -4.1452431298e-03 3 1  ON 52
CSFcoeff_54 -6.1250498387e-03 3 1  ON 53
CSFcoeff_55 3.5849354557e-03 3 1  ON 54
CSFcoeff_56 2.4329550565e-03 3 1  ON 55
CSFcoeff_57 -7.8879523879e-03 3 1  ON 56
CSFcoeff_58 -4.9405939071e-03 3 1  ON 57
CSFcoeff_59 6.5745341041e-03 3 1  ON 58
CSFcoeff_60 -3.9539776298e-03 3 1  ON 59
CSFcoeff_61 4.5458874471e-03 3 1  ON 60
CSFcoeff_62 -3.1645664149e-03 3 1  ON 61
CSFcoeff_63 3.1841341445e-03 3 1  ON 62
CSFcoeff_64 8.9916606783e-03 3 1  ON 63
CSFcoeff_65 -6.2235551877e-03 3 1  ON 64
CSFcoeff_66 -5.6842146067e-03 3 1  ON 65
CSFcoeff_67 6.3322632274e-03 3 1  ON 66
CSFcoeff_68 -5.3347002571e-03 3 1  ON 67
CSFcoeff_69 -4.6228491848e-03 3 1  ON 68
CSFcoeff_70 -7.7913401429e-03 3 1  ON 69
CSFcoeff_71 2.3831173643e-03 3 1  ON 70
CSFcoeff_72 -4.9625936748e-03 3 1  ON 71
CSFcoeff_73 -3.5783337542e-03 3 1  ON 72
CSFcoeff_74 4.2201858038e-03 3 1  ON 73
CSFcoeff_75 -1.9347969314e-03 3 1  ON 74
CSFcoeff_76 -6.7600023181e-03 3 1  ON 75
CSFcoeff_77 4.3696656210e-03 3 1  ON 76
CSFcoeff_78 1.2981169776e-02 3 1  ON 77
CSFcoeff_79 3.6285951429e-03 3 1  ON 78
CSFcoeff_80 -2.8863701479e-03 3 1  ON 79
CSFcoeff_81 -3.4936686559e-03 3 1  ON 80
CSFcoeff_82 -3.5845574127e-03 3 1  ON 81
CSFcoeff_83 5.2704662065e-03 3 1  ON 82
CSFcoeff_84 1.9854332199e-03 3 1  ON 83
CSFcoeff_85 6.0652694175e-03 3 1  ON 84
CSFcoeff_86 3.7090138105e-03 3 1  ON 85
CSFcoeff_87 4.6495845749e-03 3 1  ON 86
CSFcoeff_88 -3.7147581345e-03 3 1  ON 87
CSFcoeff_89 6.3555873310e-04 3 1  ON 88
CSFcoeff_90 -2.1425182408e-03 3 1  ON 89
CSFcoeff_91 4.4091889931e-03 3 1  ON 90
CSFcoeff_92 2.9787168186e-03 3 1  ON 91
CSFcoeff_93 3.7282346848e-03 3 1  ON 92
CSFcoeff_94 5.1358391503e-03 3 1  ON 93
CSFcoeff_95 -7.8036668175e-03 3 1  ON 94
CSFcoeff_96 -4.7207210108e-03 3 1  ON 95
CSFcoeff_97 6.9907759406e-04 3 1  ON 96
CSFcoeff_98 -1.6827261336e-03 3 1  ON 97
CSFcoeff_99 6.8317316957e-03 3 1  ON 98
CSFcoeff_100 9.5010297301e-03 3 1  ON 99
CSFcoeff_101 -9.5172376601e-03 3 1  ON 100
CSFcoeff_102 -7.4088598805e-04 3 1  ON 101
CSFcoeff_103 1.3054387855e-03 3 1  ON 102
CSFcoeff_104 -2.9903142673e-03 3 1  ON 103
CSFcoeff_105 2.1881312697e-04 3 1  ON 104
CSFcoeff_106 -3.4207814857e-03 3 1  ON 105
CSFcoeff_107 7.2481057066e-03 3 1  ON 106
CSFcoeff_108 -2.3490219759e-03 3 1  ON 107
CSFcoeff_109 5.5160189498e-03 3 1  ON 108
CSFcoeff_110 -3.7030544261e-03 3 1  ON 109
CSFcoeff_111 2.5834244190e-03 3 1  ON 110
CSFcoeff_112 3.4702891781e-03 3 1  ON 111
CSFcoeff_113 -4.8227225357e-03 3 1  ON 112
CSFcoeff_114 3.4276172271e-03 3 1  ON 113
CSFcoeff_115 6.3066941323e-03 3 1  ON 114
CSFcoeff_116 4.5178428428e-03 3 1  ON 115
CSFcoeff_117 -6.4300153618e-03 3 1  ON 116
CSFcoeff_118 5.2372919212e-03 3 1  ON 117
CSFcoeff_119 -4.4125811614e-03 3 1  ON 118
CSFcoeff_120 3.2222586387e-03 3 1  ON 119
CSFcoeff_121 2.8046780645e-03 3 1  ON 120
CSFcoeff_122 -2.2454738702e-03 3 1  ON 121
CSFcoeff_123 -4.8357331911e-03 3 1  ON 122
CSFcoeff_124 3.7955492322e-03 3 1  ON 123
CSFcoeff_125 -1.3319975329e-03 3 1  ON 124
CSFcoeff_126 9.9643174513e-03 3 1  ON 125
CSFcoeff_127 3.5205638146e-03 3 1  ON 126
CSFcoeff_128 -3.5619219359e-04 3 1  ON 127
CSFcoeff_129 4.6731625363e-03 3 1  ON 128
CSFcoeff_130 -4.4652600114e-03 3 1  ON 129
CSFcoeff_131 -2.8638146094e-03 3 1  ON 130
CSFcoeff_132 -3.4066616973e-03 3 1  ON 131
CSFcoeff_133 -4.7189521150e-03 3 1  ON 132
CSFcoeff_134 1.8121018369e-03 3 1  ON 133
CSFcoeff_135 1.5282773590e-03 3 1  ON 134
CSFcoeff_136 6.3351124966e-03 3 1  ON 135
CSFcoeff_137 -3.3571443137e-03 3 1  ON 136
CSFcoeff_138 -2.0752028330e-03 3 1  ON 137
CSFcoeff_139 -3.2789104637e-03 3 1  ON 138
CSFcoeff_140 2.2619061959e-03 3 1  ON 139
CSFcoeff_141 -2.5560153024e-03 3 1  ON 140
CSFcoeff_142 -2.8989903248e-03 3 1  ON 141
CSFcoeff_143 -8.6574589848e-03 3 1  ON 142
CSFcoeff_144 5.7047991980e-03 3 1  ON 143
CSFcoeff_145 -2.9234242780e-03 3 1  ON 144
CSFcoeff_146 -4.3925300671e-04 3 1  ON 145
CSFcoeff_147 3.1344599297e-03 3 1  ON 146
CSFcoeff_148 -3.5309850696e-03 3 1  ON 147
CSFcoeff_149 5.4453577285e-04 3 1  ON 148
CSFcoeff_150 3.0560351341e-03 3 1  ON 149
CSFcoeff_151 -9.1843440479e-03 3 1  ON 150
CSFcoeff_152 -4.0894084612e-03 3 1  ON 151
uu_0 3.9401658098e-01 1 1  ON 152
uu_1 2.4143083390e-01 1 1  ON 153
uu_2 1.7190898996e-01 1 1  ON 154
uu_3 1.3832059782e-01 1 1  ON 155
uu_4 1.1594436369e-01 1 1  ON 156
uu_5 9.1434968412e-02 1 1  ON 157
uu_6 7.7898192541e-02 1 1  ON 158
uu_7 6.5351904657e-02 1 1  ON 159
uu_8 3.0745334275e-02 1 1  ON 160
uu_9 6.1400166537e-02 1 1  ON 161
ud_0 5.8987434604e-01 1 1  ON 162
ud_1 2.9291355220e-01 1 1  ON 163
ud_2 1.6451809213e-01 1 1  ON 164
ud_3 1.2479144852e-01 1 1  ON 165
ud_4 1.1281279316e-01 1 1  ON 166
ud_5 9.4734902080e-02 1 1  ON 167
ud_6 7.6442535066e-02 1 1  ON 168
ud_7 4.7867672570e-02 1 1  ON 169
ud_8 4.1142515450e-02 1 1  ON 170
ud_9 3.9754226142e-02 1 1  ON 171
eO_0 -8.8880542490e+00 1 1  ON 172
eO_1 -8.6043755661e+00 1 1  ON 173
eO_2 -7.9503667866e+00 1 1  ON 174
eO_3 -7.2602184712e+00 1 1  ON 175
eO_4 -6.7402704873e+00 1 1  ON 176
eO_5 -6.4986466537e+00 1 1  ON 177
eO_6 -6.4429645213e+00 1 1  ON 178
eO_7 -6.3651669038e+00 1 1  ON 179
eO_8 -6.4956176705e+00 1 1  ON 180
eO_9 -6.3124226776e+00 1 1  ON 181
eH_0 -5.8394956259e-01 1 1  ON 182
eH_1 -5.8336043045e-01 1 1  ON 183
eH_2 -5.8041429891e-01 1 1  ON 184
eH_3 -5.0295621413e-01 1 1  ON 185
eH_4 -4.1491448046e-01 1 1  ON 186
eH_5 -3.9272381202e-01 1 1  ON 187
eH_6 -4.0703667058e-01 1 1  ON 188
eH_7 -3.9876018043e-01 1 1  ON 189
eH_8 -3.3193774610e-01 1 1  ON 190
eH_9 -3.2295166228e-01 1 1  ON 191
uuO_0 8.1308545196e-06 1 1  ON 192
uuO_1 -5.9844636117e-07 1 1  ON 193
uuO_2 -3.7588207355e-06 1 1  ON 194
uuO_3 -6.7658229315e-06 1 1  ON 195
uuO_4 -1.4229722187e-06 1 1  ON 196
uuO_5 6.1899773033e-06 1 1  ON 197
uuO_6 -1.2161038824e-05 1 1  ON 198
uuO_7 1.2162455740e-05 1 1  ON 199
uuO_8 6.7443223407e-06 1 1  ON 200
uuO_9 -1.8249429430e-06 1 1  ON 201
uuO_10 -5.0135525878e-06 1 1  ON 202
uuO_11 -1.0588943029e-05 1 1  ON 203
uuO_12 -8.2802681099e-07 1 1  ON 204
uuO_13 7.8247583909e-06 1 1  ON 205
uuO_14 1.6272313857e-06 1 1  ON 206
uuO_15 -5.8470339302e-08 1 1  ON 207
uuO_16 1.8991126383e-05 1 1  ON 208
uuO_17 -5.2401981094e-07 1 1  ON 209
uuO_18 1.0639021023e-05 1 1  ON 210
uuO_19 -1.3498111348e-06 1 1  ON 211
uuO_20 -8.9274726051e-06 1 1  ON 212
uuO_21 -1.3603329919e-06 1 1  ON 213
uuO_22 2.7290811475e-07 1 1  ON 214
uuO_23 4.0710742459e-06 1 1  ON 215
uuO_24 2.8040778450e-09 1 1  ON 216
uuO_25 -3.1042233833e-08 1 1  ON 217
udO_0 4.1921511061e-06 1 1  ON 218
udO_1 1.3837834966e-05 1 1  ON 219
udO_2 1.0789175980e-05 1 1  ON 220
udO_3 -1.0502486328e-05 1 1  ON 221
udO_4 -4.4324679027e-06 1 1  ON 222
udO_5 2.6049663426e-06 1 1  ON 223
udO_6 1.6076458684e-05 1 1  ON 224
udO_7 7.1397178008e-06 1 1  ON 225
udO_8 1.9105341219e-05 1 1  ON 226
udO_9 -1.1124407572e-05 1 1  ON 227
udO_10 -6.5384240895e-06 1 1  ON 228
udO_11 -1.5933020996e-05 1 1  ON 229
udO_12 -5.3392496279e-06 1 1  ON 230
udO_13 7.8938766827e-06 1 1  ON 231
udO_14 4.8583362435e-06 1 1  ON 232
udO_15 3.6113677146e-08 1 1  ON 233
udO_16 2.7025500318e-05 1 1  ON 234
udO_17 1.9119327265e-06 1 1  ON 235
udO_18 1.0779250328e-05 1 1  ON 236
udO_19 1.3328952225e-06 1 1  ON 237
udO_20 -9.5061610498e-06 1 1  ON 238
udO_21 -2.0233595237e-06 1 1  ON 239
udO_22 6.3993355434e-08 1 1  ON 240
udO_23 4.2192594150e-06 1 1  ON 241
udO_24 6.6666049164e-09 1 1  ON 242
udO_25 -6.2721992745e-09 1 1  ON 243
uuH_0 3.0651102213e-06 1 1  ON 244
uuH_1 2.1451747092e-05 1 1  ON 245
uuH_2 8.4486046531e-06 1 1  ON 246
uuH_3 -7.2455626279e-06 1 1  ON 247
uuH_4 -2.6345183153e-06 1 1  ON 248
uuH_5 -1.5340612284e-06 1 1  ON 249
uuH_6 3.2277456710e-05 1 1  ON 250
uuH_7 -1.3571009760e-05 1 1  ON 251
uuH_8 6.7854866374e-06 1 1  ON 252
uuH_9 -2.4535775808e-05 1 1  ON 253
uuH_10 -4.4876747803e-06 1 1  ON 254
uuH_11 -2.9556352490e-06 1 1  ON 255
uuH_12 -1.6041517644e-06 1 1  ON 256
uuH_13 9.3130770824e-06 1 1  ON 257
uuH_14 1.5223620859e-08 1 1  ON 258
uuH_15 1.5678003520e-07 1 1  ON 259
uuH_16 3.5578222153e-05 1 1  ON 260
uuH_17 -4.5475385169e-06 1 1  ON 261
uuH_18 4.7384305035e-06 1 1  ON 262
uuH_19 7.9017113432e-08 1 1  ON 263
uuH_20 -1.0232485680e-05 1 1  ON 264
uuH_21 -1.2941310500e-09 1 1  ON 265
uuH_22 -3.4054930484e-08 1 1  ON 266
uuH_23 2.9146524434e-06 1 1  ON 267
uuH_24 -2.3549089582e-07 1 1  ON 268
uuH_25 2.6988390920e-08 1 1  ON 269
udH_0 -1.7596423071e-06 1 1  ON 270
udH_1 -1.0569745762e-05 1 1  ON 271
udH_2 6.7184974279e-07 1 1  ON 272
udH_3 -3.8118722079e-07 1 1  ON 273
udH_4 -1.8438612782e-06 1 1  ON 274
udH_5 1.2484439031e-06 1 1  ON 275
udH_6 -1.5125373691e-05 1 1  ON 276
udH_7 7.6869574083e-06 1 1  ON 277
udH_8 4.5469332050e-06 1 1  ON 278
udH_9 1.2330315983e-05 1 1  ON 279
udH_10 -1.3715416427e-06 1 1  ON 280
udH_11 -3.2910985845e-06 1 1  ON 281
udH_12 -1.8831860709e-06 1 1  ON 282
udH_13 1.4800097822e-06 1 1  ON 283
udH_14 1.9192344884e-06 1 1  ON 284
udH_15 2.6897518717e-09 1 1  ON 285
udH_16 -1.1373590576e-05 1 1  ON 286
udH_17 4.5464286893e-06 1 1  ON 287
udH_18 2.0199769812e-07 1 1  ON 288
udH_19 9.0108725576e-07 1 1  ON 289
udH_20 7.7251594693e-07 1 1  ON 290
udH_21 -3.4393709824e-07 1 1  ON 291
udH_22 -5.0619317322e-08 1 1  ON 292
udH_23 1.3784426810e-07 1 1  ON 293
udH_24 -7.9723321147e-09 1 1  ON 294
udH_25 9.2114643138e-09 1 1  ON 295
  </optVariables>
   Restore the number of walkers to 1, removing 159 walkers.
</opt>
</optimization-report>
  QMC Execution time = 1.1925195539e+01 secs 
  Reusing QMCFixedSampleLinearOptimize
 Using QMCCostFunctionOMP::QMCCostFunctionOMP

=========================================================
  Start QMCFixedSampleLinearOptimize
  File Root jopt-h2o.s003 append = no 
=========================================================
  Skip QMCDriver::putQMCInfo 
  Resetting Properties of the walkers 1 x 14

=========================================================
  Start VMCSingleOMP
  File Root jopt-h2o.s003 append = no 
=========================================================
Using existing walkers 
  Resetting Properties of the walkers 1 x 14

<vmc function="put">
  qmc_counter=3  my_counter=3
  time step      = 5.0000000000e-01
  blocks         = 100
  steps          = 2
  substeps       = 20
  current        = 0
  target samples = 5.1200000000e+04
  walkers/mpi    = 1

  stepsbetweensamples = 1
<parameter name="blocks" condition="int">100</parameter>
<parameter name="check_properties" condition="int">100</parameter>
<parameter name="checkproperties" condition="int">100</parameter>
<parameter name="current" condition="int">0</parameter>
<parameter name="dmcwalkersperthread" condition="real">1.6000000000e+02</parameter>
<parameter name="maxcpusecs" condition="real">3.6000000000e+05</parameter>
<parameter name="record_configs" condition="int">0</parameter>
<parameter name="record_walkers" condition="int">1</parameter>
<parameter name="recordconfigs" condition="int">0</parameter>
<parameter name="recordwalkers" condition="int">1</parameter>
[...]
  Walker Samples are dumped every 1 steps.
</vmc>
  EstimatorManager::add replace LocalEnergy estimator.
  EstimatorManager::add replace LocalEnergy estimator.
<optimization-report>
<vmc stage="main" blocks="100">
  Cannot make clones again. Use existing 1 clones
  Initial partition of walkers 0 1 
  Total Sample Size   =51200
  Walker distribution on root = 0 1 
====================================================
  SimpleFixedNodeBranch::finalize after a VMC block
    QMC counter        = 9
    time step          = 0.5
    reference energy   = -17.3009
    reference variance = 0.458918
====================================================
  Execution time = 3.6688592720e+00
</vmc>
<opt stage="setup">
  <log>
   Reading configurations from h5FileRoot jopt-h2o.s009
  QMCCostFunctionOMP is created with 1
   Loading configuration from MCWalkerConfiguration::SampleStack 
    number of walkers before load 1
  Using Nonlocal PP in Opt: NonLocalECP
    number of walkers after load: 160 
Using buffers for temporary storage in QMCCostFunction.

Memory usage: 
Linear method (approx matrix usage: 4*N^2): 2.8037120000e+00 MB
Deriv,HDerivRecord:      1.1366400000e+00 MB
Buffer memory cost:     MB/walker       MB/total 
Orbitals only:           2.3040000000e-03      3.6864000000e-01
Orbitals + dervs:        1.1520000000e-02      1.8432000000e+00
Inverse:                 2.5600000000e-04      4.0960000000e-02
Determinants:            3.3728000000e-02      5.3964800000e+00
  VMC Eavg = -8.8246562718e+00
  VMC Evar = 6.0659913368e+02
  Total weights = 5.1200000000e+04
  Execution time = 5.4421181101e-01
  </log>
</opt>
<opt stage="main" walkers="51200">
  <log>
Iteration: 1/1
od_largest 4.9104591703e+09
  stabilityBase -6.0000000000e+00
  stabilizerScale 2.0000000000e+00
  Using XS:-6.0000000000e+00 0 0
ERROR CostFunction-> Number of Effective Walkers is too small 1.2687973527e+01 NumWalkersEff/NumSamples 2.4781198294e-04
ERROR CostFunction-> Number of Effective Walkers is too small 1.0154009778e+02 NumWalkersEff/NumSamples 1.9832050347e-03
ERROR CostFunction-> Number of Effective Walkers is too small 1.0016842744e+00 NumWalkersEff/NumSamples 1.9564145985e-05
ERROR CostFunction-> Number of Effective Walkers is too small 1.0000636316e+00 NumWalkersEff/NumSamples 1.9532492805e-05
ERROR CostFunction-> Number of Effective Walkers is too small 1.0084762286e+00 NumWalkersEff/NumSamples 1.9696801340e-05
ERROR CostFunction-> Number of Effective Walkers is too small 1.0016842744e+00 NumWalkersEff/NumSamples 1.9564145985e-05
  Failed Step. Largest LM parameter change:1.7978136080e+03
ERROR   Using XS:-4.0000000000e+00 1 0
ERROR CostFunction-> Number of Effective Walkers is too small 1.2405510920e+01 NumWalkersEff/NumSamples 2.4229513516e-04
ERROR CostFunction-> Number of Effective Walkers is too small 9.7238663862e+01 NumWalkersEff/NumSamples 1.8991926536e-03
ERROR CostFunction-> Number of Effective Walkers is too small 1.0016266633e+00 NumWalkersEff/NumSamples 1.9563020767e-05
ERROR CostFunction-> Number of Effective Walkers is too small 1.0000605625e+00 NumWalkersEff/NumSamples 1.9532432862e-05
ERROR CostFunction-> Number of Effective Walkers is too small 1.0082461679e+00 NumWalkersEff/NumSamples 1.9692307967e-05
ERROR CostFunction-> Number of Effective Walkers is too small 1.0016266633e+00 NumWalkersEff/NumSamples 1.9563020767e-05
  Failed Step. Largest LM parameter change:1.8053081200e+03
ERROR   Using XS:-2.0000000000e+00 2 0
ERROR CostFunction-> Number of Effective Walkers is too small 1.0388445320e+01 NumWalkersEff/NumSamples 2.0289932265e-04
ERROR CostFunction-> Number of Effective Walkers is too small 6.7576910955e+01 NumWalkersEff/NumSamples 1.3198615421e-03
ERROR CostFunction-> Number of Effective Walkers is too small 1.0012211498e+00 NumWalkersEff/NumSamples 1.9555100582e-05
ERROR CostFunction-> Number of Effective Walkers is too small 1.0000403068e+00 NumWalkersEff/NumSamples 1.9532037241e-05
ERROR CostFunction-> Number of Effective Walkers is too small 1.0065733590e+00 NumWalkersEff/NumSamples 1.9659635917e-05
ERROR CostFunction-> Number of Effective Walkers is too small 1.0012211498e+00 NumWalkersEff/NumSamples 1.9555100582e-05
  Failed Step. Largest LM parameter change:1.8669869395e+03
ERROR   Using XS:0.0000000000e+00 3 0
ERROR CostFunction-> Number of Effective Walkers is too small 2.2654436172e+00 NumWalkersEff/NumSamples 4.4246945649e-05
ERROR CostFunction-> Number of Effective Walkers is too small 1.1653534016e+00 NumWalkersEff/NumSamples 2.2760808625e-05
ERROR CostFunction-> Number of Effective Walkers is too small 1.0052486868e+00 NumWalkersEff/NumSamples 1.9633763414e-05
ERROR CostFunction-> Number of Effective Walkers is too small 1.0001580599e+00 NumWalkersEff/NumSamples 1.9534337107e-05
ERROR CostFunction-> Number of Effective Walkers is too small 1.0000045351e+00 NumWalkersEff/NumSamples 1.9531338577e-05
ERROR CostFunction-> Number of Effective Walkers is too small 1.0000001270e+00 NumWalkersEff/NumSamples 1.9531252480e-05
  Failed Step. Largest LM parameter change:3.8052415714e+03
ERROR   Using XS:2.0000000000e+00 4 0
ERROR CostFunction-> Number of Effective Walkers is too small 1.0000000000e+00 NumWalkersEff/NumSamples 1.9531250000e-05
ERROR CostFunction-> Number of Effective Walkers is too small 1.0000000000e+00 NumWalkersEff/NumSamples 1.9531250000e-05
ERROR CostFunction-> Number of Effective Walkers is too small 1.0000000000e+00 NumWalkersEff/NumSamples 1.9531250000e-05
ERROR CostFunction-> Number of Effective Walkers is too small 1.0000000000e+00 NumWalkersEff/NumSamples 1.9531250000e-05
ERROR CostFunction-> Number of Effective Walkers is too small 1.0000000000e+00 NumWalkersEff/NumSamples 1.9531250000e-05
  Failed Step. Largest LM parameter change:5.4802960966e+04
ERROR   Using XS:4.0000000000e+00 5 0
ERROR CostFunction-> Number of Effective Walkers is too small 1.0146676982e+00 NumWalkersEff/NumSamples 1.9817728480e-05
ERROR CostFunction-> Number of Effective Walkers is too small 2.7018611260e+01 NumWalkersEff/NumSamples 5.2770725117e-04
ERROR CostFunction-> Number of Effective Walkers is too small 1.0000000065e+00 NumWalkersEff/NumSamples 1.9531250127e-05
ERROR CostFunction-> Number of Effective Walkers is too small 1.0000000000e+00 NumWalkersEff/NumSamples 1.9531250000e-05
ERROR CostFunction-> Number of Effective Walkers is too small 1.0000000000e+00 NumWalkersEff/NumSamples 1.9531250000e-05
ERROR CostFunction-> Number of Effective Walkers is too small 1.0000000000e+00 NumWalkersEff/NumSamples 1.9531250000e-05
  Failed Step. Largest LM parameter change:3.8791405759e+04
ERROR   Using XS:6.0000000000e+00 6 0
ERROR CostFunction-> Number of Effective Walkers is too small 1.9263619388e+01 NumWalkersEff/NumSamples 3.7624256618e-04
ERROR CostFunction-> Number of Effective Walkers is too small 1.0003478833e+00 NumWalkersEff/NumSamples 1.9538044596e-05
ERROR CostFunction-> Number of Effective Walkers is too small 1.0000000000e+00 NumWalkersEff/NumSamples 1.9531250000e-05
ERROR CostFunction-> Number of Effective Walkers is too small 1.0000000000e+00 NumWalkersEff/NumSamples 1.9531250000e-05
ERROR CostFunction-> Number of Effective Walkers is too small 1.0000000000e+00 NumWalkersEff/NumSamples 1.9531250000e-05
ERROR CostFunction-> Number of Effective Walkers is too small 1.0000000000e+00 NumWalkersEff/NumSamples 1.9531250000e-05
  Failed Step. Largest LM parameter change:4.8602213792e+04
ERROR   Using XS:8.0000000000e+00 7 0
Before:  ax = 0.0000000000e+00  bx=5.0000000020e-01  cx=0.0000000000e+00
After:  ax = 8.1401700032e+01  bx=3.6380433701e+02  cx=2.1099438433e+02
Minimum found at lambda = 3.4716333075e+02
  Failed Step. Largest LM parameter change:2.1593697085e+01
ERROR   Using XS:1.0000000000e+01 8 0
  Good Step. Largest LM parameter change:7.9730804392e-01
 OldCost: -1.6384842703e+01 NewCost: -1.6385304370e+01 Delta Cost:-4.6166682204e-04
      Current ene:     -1.7262725809e+01
      Current var:     2.8570296259e-01
      Current ene_urw:     -1.7262126682e+01
      Current var_urw: 2.5059504501e-01
Setting new Parameters
ERROR   Execution time = 2.0532906750e+01
  </log>
  <optVariables href="jopt-h2o.s009.opt.xml">
CSFcoeff_1 -3.6414804879e-02 3 1  ON 0
CSFcoeff_2 2.7906576951e-02 3 1  ON 1
CSFcoeff_3 -1.7587899796e-02 3 1  ON 2
CSFcoeff_4 1.6781202916e-02 3 1  ON 3
CSFcoeff_5 -1.8528529064e-02 3 1  ON 4
CSFcoeff_6 -2.3718380632e-02 3 1  ON 5
CSFcoeff_7 1.0494753537e-02 3 1  ON 6
CSFcoeff_8 1.2017953033e-02 3 1  ON 7
CSFcoeff_9 -1.7157532665e-02 3 1  ON 8
CSFcoeff_10 -1.7646858136e-02 3 1  ON 9
CSFcoeff_11 -1.4121570279e-02 3 1  ON 10
CSFcoeff_12 1.3394529653e-02 3 1  ON 11
CSFcoeff_13 3.1565652708e-02 3 1  ON 12
CSFcoeff_14 -1.5494919972e-02 3 1  ON 13
CSFcoeff_15 -1.7537861269e-02 3 1  ON 14
CSFcoeff_16 -1.5066657565e-02 3 1  ON 15
CSFcoeff_17 1.1040926802e-02 3 1  ON 16
CSFcoeff_18 -1.4741530203e-02 3 1  ON 17
CSFcoeff_19 -1.8730521054e-02 3 1  ON 18
CSFcoeff_20 -1.1775691013e-02 3 1  ON 19
CSFcoeff_21 1.5673417798e-02 3 1  ON 20
CSFcoeff_22 -1.4819063977e-02 3 1  ON 21
CSFcoeff_23 1.1127283080e-02 3 1  ON 22
CSFcoeff_24 -1.2313781946e-02 3 1  ON 23
CSFcoeff_25 9.0718081971e-03 3 1  ON 24
CSFcoeff_26 2.4909289555e-03 3 1  ON 25
CSFcoeff_27 -7.8795181767e-03 3 1  ON 26
CSFcoeff_28 -9.9825022196e-04 3 1  ON 27
CSFcoeff_29 -1.2333251267e-02 3 1  ON 28
CSFcoeff_30 9.6493749513e-03 3 1  ON 29
CSFcoeff_31 -1.0715676708e-02 3 1  ON 30
CSFcoeff_32 -5.6569767855e-03 3 1  ON 31
CSFcoeff_33 7.6778083655e-03 3 1  ON 32
CSFcoeff_34 -8.2743289692e-03 3 1  ON 33
CSFcoeff_35 1.0345843640e-02 3 1  ON 34
CSFcoeff_36 -4.5299156254e-03 3 1  ON 35
CSFcoeff_37 1.0967318289e-02 3 1  ON 36
CSFcoeff_38 -7.2097643255e-03 3 1  ON 37
CSFcoeff_39 7.1818090363e-03 3 1  ON 38
CSFcoeff_40 -1.2642188826e-02 3 1  ON 39
CSFcoeff_41 4.8076644360e-03 3 1  ON 40
CSFcoeff_42 -4.4238987111e-03 3 1  ON 41
CSFcoeff_43 9.9632385815e-03 3 1  ON 42
CSFcoeff_44 -7.1511751754e-03 3 1  ON 43
CSFcoeff_45 -1.9736461348e-02 3 1  ON 44
CSFcoeff_46 -3.3704384780e-03 3 1  ON 45
CSFcoeff_47 7.6400371144e-03 3 1  ON 46
CSFcoeff_48 -9.0046611291e-03 3 1  ON 47
CSFcoeff_49 7.4510335673e-03 3 1  ON 48
CSFcoeff_50 -2.7707447990e-03 3 1  ON 49
CSFcoeff_51 2.3026899564e-06 3 1  ON 50
CSFcoeff_52 -3.5616501533e-03 3 1  ON 51
CSFcoeff_53 -4.6590751419e-03 3 1  ON 52
CSFcoeff_54 -5.9665565826e-03 3 1  ON 53
CSFcoeff_55 2.0476518483e-03 3 1  ON 54
CSFcoeff_56 1.6774425776e-03 3 1  ON 55
CSFcoeff_57 -8.0661226652e-03 3 1  ON 56
CSFcoeff_58 -5.4591954538e-03 3 1  ON 57
CSFcoeff_59 6.0892557369e-03 3 1  ON 58
CSFcoeff_60 -3.6868875023e-03 3 1  ON 59
CSFcoeff_61 5.0106023974e-03 3 1  ON 60
CSFcoeff_62 -3.5264744137e-03 3 1  ON 61
CSFcoeff_63 1.9985875883e-03 3 1  ON 62
CSFcoeff_64 8.9462288124e-03 3 1  ON 63
CSFcoeff_65 -5.2008743376e-03 3 1  ON 64
CSFcoeff_66 -5.1308952996e-03 3 1  ON 65
CSFcoeff_67 5.2607545759e-03 3 1  ON 66
CSFcoeff_68 -4.7742506939e-03 3 1  ON 67
CSFcoeff_69 -4.7447489569e-03 3 1  ON 68
CSFcoeff_70 -7.6274144391e-03 3 1  ON 69
CSFcoeff_71 2.1835409960e-03 3 1  ON 70
CSFcoeff_72 -4.7144490775e-03 3 1  ON 71
CSFcoeff_73 -3.2548038572e-03 3 1  ON 72
CSFcoeff_74 4.4511190883e-03 3 1  ON 73
CSFcoeff_75 -1.4701315086e-03 3 1  ON 74
CSFcoeff_76 -6.5102043418e-03 3 1  ON 75
CSFcoeff_77 4.0402410045e-03 3 1  ON 76
CSFcoeff_78 1.3604815924e-02 3 1  ON 77
CSFcoeff_79 4.1025521995e-03 3 1  ON 78
CSFcoeff_80 -2.4647237290e-03 3 1  ON 79
CSFcoeff_81 -3.4625389262e-03 3 1  ON 80
CSFcoeff_82 -3.6916081173e-03 3 1  ON 81
CSFcoeff_83 4.3841629046e-03 3 1  ON 82
CSFcoeff_84 1.0064710359e-03 3 1  ON 83
CSFcoeff_85 6.0491003296e-03 3 1  ON 84
CSFcoeff_86 3.5142700514e-03 3 1  ON 85
CSFcoeff_87 4.2628667058e-03 3 1  ON 86
CSFcoeff_88 -3.0059547015e-03 3 1  ON 87
CSFcoeff_89 -5.6600863787e-04 3 1  ON 88
CSFcoeff_90 -2.6251967503e-03 3 1  ON 89
CSFcoeff_91 4.5845804935e-03 3 1  ON 90
CSFcoeff_92 2.0158447650e-03 3 1  ON 91
CSFcoeff_93 3.0774571609e-03 3 1  ON 92
CSFcoeff_94 5.4839481355e-03 3 1  ON 93
CSFcoeff_95 -6.5450536098e-03 3 1  ON 94
CSFcoeff_96 -4.5082174939e-03 3 1  ON 95
CSFcoeff_97 7.3423666534e-04 3 1  ON 96
CSFcoeff_98 -1.2558777634e-03 3 1  ON 97
CSFcoeff_99 5.2818684983e-03 3 1  ON 98
CSFcoeff_100 1.0060861290e-02 3 1  ON 99
CSFcoeff_101 -7.4833305871e-03 3 1  ON 100
CSFcoeff_102 -4.4426461095e-04 3 1  ON 101
CSFcoeff_103 4.9412114457e-04 3 1  ON 102
CSFcoeff_104 -3.0992673886e-03 3 1  ON 103
CSFcoeff_105 1.1515476191e-03 3 1  ON 104
CSFcoeff_106 -2.7654535533e-03 3 1  ON 105
CSFcoeff_107 7.1009371054e-03 3 1  ON 106
CSFcoeff_108 -3.4551902893e-03 3 1  ON 107
CSFcoeff_109 4.9855678545e-03 3 1  ON 108
CSFcoeff_110 -3.8471861624e-03 3 1  ON 109
CSFcoeff_111 2.4895015214e-03 3 1  ON 110
CSFcoeff_112 2.7841173490e-03 3 1  ON 111
CSFcoeff_113 -4.1436451305e-03 3 1  ON 112
CSFcoeff_114 3.4960692781e-03 3 1  ON 113
CSFcoeff_115 5.9335555782e-03 3 1  ON 114
CSFcoeff_116 4.4112306880e-03 3 1  ON 115
CSFcoeff_117 -6.3384257313e-03 3 1  ON 116
CSFcoeff_118 5.0037375425e-03 3 1  ON 117
CSFcoeff_119 -2.9306608449e-03 3 1  ON 118
CSFcoeff_120 3.0504866220e-03 3 1  ON 119
CSFcoeff_121 2.2122047692e-03 3 1  ON 120
CSFcoeff_122 -2.1879289251e-03 3 1  ON 121
CSFcoeff_123 -3.8671363559e-03 3 1  ON 122
CSFcoeff_124 2.9310371483e-03 3 1  ON 123
CSFcoeff_125 -1.0661053999e-03 3 1  ON 124
CSFcoeff_126 8.0045014328e-03 3 1  ON 125
CSFcoeff_127 2.5188290895e-03 3 1  ON 126
CSFcoeff_128 2.3040103181e-04 3 1  ON 127
CSFcoeff_129 4.4170122692e-03 3 1  ON 128
CSFcoeff_130 -3.8535279866e-03 3 1  ON 129
CSFcoeff_131 -2.7526580492e-03 3 1  ON 130
CSFcoeff_132 -4.6134124763e-03 3 1  ON 131
CSFcoeff_133 -3.2334354721e-03 3 1  ON 132
CSFcoeff_134 1.5905323435e-03 3 1  ON 133
CSFcoeff_135 1.5021701121e-03 3 1  ON 134
CSFcoeff_136 6.7461504685e-03 3 1  ON 135
CSFcoeff_137 -3.6862469188e-03 3 1  ON 136
CSFcoeff_138 -1.9276014218e-03 3 1  ON 137
CSFcoeff_139 -3.0327464827e-03 3 1  ON 138
CSFcoeff_140 1.8488408921e-03 3 1  ON 139
CSFcoeff_141 -2.4940533107e-03 3 1  ON 140
CSFcoeff_142 -2.8275891250e-03 3 1  ON 141
CSFcoeff_143 -9.3656164843e-03 3 1  ON 142
CSFcoeff_144 5.1103684062e-03 3 1  ON 143
CSFcoeff_145 -2.7812009237e-03 3 1  ON 144
CSFcoeff_146 1.6467738501e-04 3 1  ON 145
CSFcoeff_147 3.5551374403e-03 3 1  ON 146
CSFcoeff_148 -3.0058228649e-03 3 1  ON 147
CSFcoeff_149 5.0663579238e-04 3 1  ON 148
CSFcoeff_150 2.2461492922e-03 3 1  ON 149
CSFcoeff_151 -1.0563117052e-02 3 1  ON 150
CSFcoeff_152 -4.0858105491e-03 3 1  ON 151
uu_0 4.2075917822e-01 1 1  ON 152
uu_1 2.7057195999e-01 1 1  ON 153
uu_2 1.9385643731e-01 1 1  ON 154
uu_3 1.5309755122e-01 1 1  ON 155
uu_4 1.2208073673e-01 1 1  ON 156
uu_5 9.3922213821e-02 1 1  ON 157
uu_6 7.6687429036e-02 1 1  ON 158
uu_7 5.9573853511e-02 1 1  ON 159
uu_8 2.9611325738e-02 1 1  ON 160
uu_9 2.7394012812e-02 1 1  ON 161
ud_0 6.0321842270e-01 1 1  ON 162
ud_1 3.0727041912e-01 1 1  ON 163
ud_2 1.7348263920e-01 1 1  ON 164
ud_3 1.2826602883e-01 1 1  ON 165
ud_4 1.1117788756e-01 1 1  ON 166
ud_5 9.1447354281e-02 1 1  ON 167
ud_6 7.0455393560e-02 1 1  ON 168
ud_7 3.6739548833e-02 1 1  ON 169
ud_8 1.7316764918e-02 1 1  ON 170
ud_9 1.0842442856e-02 1 1  ON 171
eO_0 -1.0527415424e+01 1 1  ON 172
eO_1 -1.0222894185e+01 1 1  ON 173
eO_2 -9.5200182677e+00 1 1  ON 174
eO_3 -8.7452397125e+00 1 1  ON 175
eO_4 -8.1614041924e+00 1 1  ON 176
eO_5 -7.7707909388e+00 1 1  ON 177
eO_6 -7.6323172988e+00 1 1  ON 178
eO_7 -7.7153350431e+00 1 1  ON 179
eO_8 -7.5001415510e+00 1 1  ON 180
eO_9 -5.7211681063e+00 1 1  ON 181
eH_0 -8.1689898686e-01 1 1  ON 182
eH_1 -7.9978553114e-01 1 1  ON 183
eH_2 -7.8570084285e-01 1 1  ON 184
eH_3 -7.0389822478e-01 1 1  ON 185
eH_4 -6.1284043001e-01 1 1  ON 186
eH_5 -5.7929540392e-01 1 1  ON 187
eH_6 -5.9402457754e-01 1 1  ON 188
eH_7 -5.8153221620e-01 1 1  ON 189
eH_8 -5.2799539348e-01 1 1  ON 190
eH_9 -4.8122323123e-01 1 1  ON 191
uuO_0 1.0204584403e-05 1 1  ON 192
uuO_1 1.4658639426e-06 1 1  ON 193
uuO_2 -7.5090472982e-06 1 1  ON 194
uuO_3 -1.0268938792e-05 1 1  ON 195
uuO_4 -2.1270519434e-06 1 1  ON 196
uuO_5 6.8882988910e-06 1 1  ON 197
uuO_6 -1.0962422113e-05 1 1  ON 198
uuO_7 5.5802170713e-06 1 1  ON 199
uuO_8 5.3675628715e-06 1 1  ON 200
uuO_9 -2.9626618979e-06 1 1  ON 201
uuO_10 -9.4749456434e-06 1 1  ON 202
uuO_11 -1.1339866461e-06 1 1  ON 203
uuO_12 -1.9998032361e-06 1 1  ON 204
uuO_13 1.3815323819e-05 1 1  ON 205
uuO_14 2.3473525606e-06 1 1  ON 206
uuO_15 -8.6329464424e-09 1 1  ON 207
uuO_16 1.3661694296e-05 1 1  ON 208
uuO_17 1.2094895790e-05 1 1  ON 209
uuO_18 -4.3398041481e-07 1 1  ON 210
uuO_19 4.7649698097e-07 1 1  ON 211
uuO_20 -9.4382223727e-06 1 1  ON 212
uuO_21 -2.0538134577e-07 1 1  ON 213
uuO_22 1.1733524426e-08 1 1  ON 214
uuO_23 4.1945275752e-06 1 1  ON 215
uuO_24 -1.6904459099e-07 1 1  ON 216
uuO_25 9.2110859064e-09 1 1  ON 217
udO_0 8.1815009270e-07 1 1  ON 218
udO_1 1.5834398798e-05 1 1  ON 219
udO_2 1.3290863481e-05 1 1  ON 220
udO_3 -9.4499347015e-06 1 1  ON 221
udO_4 -4.4033651792e-06 1 1  ON 222
udO_5 2.9704692075e-06 1 1  ON 223
udO_6 2.4442235334e-05 1 1  ON 224
udO_7 -1.8381952124e-06 1 1  ON 225
udO_8 1.6614436121e-05 1 1  ON 226
udO_9 -1.1428050779e-05 1 1  ON 227
udO_10 -6.2429630299e-06 1 1  ON 228
udO_11 -9.9355551064e-06 1 1  ON 229
udO_12 -5.2630797079e-06 1 1  ON 230
udO_13 5.1377235888e-06 1 1  ON 231
udO_14 3.5946705454e-06 1 1  ON 232
udO_15 1.6569651139e-07 1 1  ON 233
udO_16 2.6733245753e-05 1 1  ON 234
udO_17 5.6664067280e-07 1 1  ON 235
udO_18 5.2479050447e-06 1 1  ON 236
udO_19 2.2554503150e-06 1 1  ON 237
udO_20 -7.4142608054e-06 1 1  ON 238
udO_21 -9.4086613911e-07 1 1  ON 239
udO_22 -1.7810302750e-07 1 1  ON 240
udO_23 3.3280456759e-06 1 1  ON 241
udO_24 -1.8469676208e-07 1 1  ON 242
udO_25 4.6332781308e-08 1 1  ON 243
uuH_0 3.3330655595e-06 1 1  ON 244
uuH_1 1.9602914119e-05 1 1  ON 245
uuH_2 5.6822771365e-06 1 1  ON 246
uuH_3 -1.1197802829e-05 1 1  ON 247
uuH_4 -2.5176436365e-06 1 1  ON 248
uuH_5 -1.4088828412e-06 1 1  ON 249
uuH_6 1.7669819390e-05 1 1  ON 250
uuH_7 -1.1077318938e-05 1 1  ON 251
uuH_8 9.2335373253e-06 1 1  ON 252
uuH_9 -1.2674876373e-05 1 1  ON 253
uuH_10 -5.8911569824e-06 1 1  ON 254
uuH_11 -7.5273607587e-07 1 1  ON 255
uuH_12 -2.6378193673e-06 1 1  ON 256
uuH_13 1.4504319500e-05 1 1  ON 257
uuH_14 1.6139721503e-06 1 1  ON 258
uuH_15 1.0642773963e-07 1 1  ON 259
uuH_16 8.8606621025e-06 1 1  ON 260
uuH_17 9.2225993362e-06 1 1  ON 261
uuH_18 -4.3914850137e-07 1 1  ON 262
uuH_19 8.1867541770e-07 1 1  ON 263
uuH_20 -7.1117305416e-06 1 1  ON 264
uuH_21 1.5124940837e-07 1 1  ON 265
uuH_22 -8.1165722900e-08 1 1  ON 266
uuH_23 2.1789356503e-06 1 1  ON 267
uuH_24 -2.5549951436e-07 1 1  ON 268
uuH_25 3.7435035824e-08 1 1  ON 269
udH_0 -1.7150954588e-06 1 1  ON 270
udH_1 -8.7562464521e-06 1 1  ON 271
udH_2 2.3978674018e-07 1 1  ON 272
udH_3 1.6347218776e-06 1 1  ON 273
udH_4 -1.0140996854e-06 1 1  ON 274
udH_5 1.4582334721e-06 1 1  ON 275
udH_6 -7.1818173747e-06 1 1  ON 276
udH_7 5.7457096857e-06 1 1  ON 277
udH_8 -8.4244652551e-07 1 1  ON 278
udH_9 6.1982053845e-06 1 1  ON 279
udH_10 -3.3197134359e-07 1 1  ON 280
udH_11 -3.1289627738e-06 1 1  ON 281
udH_12 6.9690685029e-07 1 1  ON 282
udH_13 -2.6480878021e-06 1 1  ON 283
udH_14 -7.5575084499e-07 1 1  ON 284
udH_15 7.2924780401e-09 1 1  ON 285
udH_16 3.9655628617e-06 1 1  ON 286
udH_17 -7.4999584534e-06 1 1  ON 287
udH_18 4.6522095934e-06 1 1  ON 288
udH_19 -8.9872434843e-07 1 1  ON 289
udH_20 -3.7643076488e-07 1 1  ON 290
udH_21 -2.3551065265e-07 1 1  ON 291
udH_22 8.6801163459e-08 1 1  ON 292
udH_23 3.1606972926e-07 1 1  ON 293
udH_24 -1.7005059007e-08 1 1  ON 294
udH_25 -5.8813442535e-09 1 1  ON 295
  </optVariables>
   Restore the number of walkers to 1, removing 159 walkers.
</opt>
</optimization-report>
  QMC Execution time = 2.0551233206e+01 secs 
  Total Execution time = 2.1156123657e+02 secs

=========================================================
  A new xml input file : jopt-h2o.s009.cont.xml
Application 11223925 resources: utime ~67825s, stime ~168s, Rss ~37528, inblocks ~1372432, outblocks ~3301237
