Tue Jul  8 13:24:14 UTC 2014

     Program PWSCF v.5.0        starts on  8Jul2014 at 13:24:21 

     This program is part of the open-source Quantum ESPRESSO suite
     for quantum simulation of materials; please cite
         "P. Giannozzi et al., J. Phys.:Condens. Matter 21 395502 (2009);
          URL http://www.quantum-espresso.org", 
     in publications or presentations arising from this work. More details at
     http://www.quantum-espresso.org/quote.php

     Parallel version (MPI), running on   512 processors
     R & G space division:  proc/pool =  512

     Current dimensions of program PWSCF are:
     Max number of different atomic species (ntypx) = 10
     Max number of k-points (npk) =  40000
     Max angular momentum in pseudopotentials (lmaxx) =  3
     Reading input from scf.in

     IMPORTANT: XC functional enforced from input :
     Exchange-correlation      = LDA ( 1 1 0 0 0)
     EXX-fraction              =        0.00
     Any further DFT definition will be discarded
     Please, verify this is what you really want

               file C.BFD.upf: wavefunction(s)  0s 0p renormalized

     Subspace diagonalization in iterative solution of the eigenvalue problem:
     a serial algorithm will be used

     Found symmetry operation: I + (  0.0000 -0.5000 -0.5000)
     This is a supercell, fractional translations are disabled
 
     Parallelization info
     --------------------
     sticks:   dense  smooth     PW     G-vecs:    dense   smooth      PW
     Min           5       5      1                  221      221      23
     Max           6       6      2                  238      238      34
     Sum        2893    2893    725               117377   117377   14771
 


     bravais-lattice index     =            0
     lattice parameter (alat)  =       1.0000  a.u.
     unit-cell volume          =     307.0445 (a.u.)^3
     number of atoms/cell      =            8
     number of atomic types    =            1
     number of electrons       =        32.00
     number of Kohn-Sham states=           20
     kinetic-energy cutoff     =     200.0000  Ry
     charge density cutoff     =     800.0000  Ry
     convergence threshold     =      1.0E-08
     mixing beta               =       0.7000
     number of iterations used =            8  plain     mixing
     Exchange-correlation      = LDA ( 1 1 0 0 0)
     EXX-fraction              =        0.00

     celldm(1)=   1.000000  celldm(2)=   0.000000  celldm(3)=   0.000000
     celldm(4)=   0.000000  celldm(5)=   0.000000  celldm(6)=   0.000000

     crystal axes: (cart. coord. in units of alat)
               a(1) = (   6.746322   0.000000   0.000000 )  
               a(2) = (   0.000000   6.746322   0.000000 )  
               a(3) = (   0.000000   0.000000   6.746322 )  

     reciprocal axes: (cart. coord. in units 2 pi/alat)
               b(1) = (  0.148229  0.000000  0.000000 )  
               b(2) = (  0.000000  0.148229  0.000000 )  
               b(3) = (  0.000000  0.000000  0.148229 )  


     PseudoPot. # 1 for C  read from file:
     ./C.BFD.upf
     MD5 check sum: 44213404c8404db625590c8337a04dfd
     Pseudo is Norm-conserving, Zval =  4.0
     Generated by new atomic code, or converted to UPF format
     Using radial grid of 2000 points,  1 beta functions with: 
                l(1) =   0

     atomic species   valence    mass     pseudopotential
        C              4.00    12.01100     C ( 1.00)

     No symmetry found


                                    s                        frac. trans.

      isym =  1     identity                                     

 cryst.   s( 1) = (     1          0          0      )
                  (     0          1          0      )
                  (     0          0          1      )

 cart.    s( 1) = (  1.0000000  0.0000000  0.0000000 )
                  (  0.0000000  1.0000000  0.0000000 )
                  (  0.0000000  0.0000000  1.0000000 )


     point group C_1 (1)    
     there are  1 classes
     the character table:

       E    
A      1.00

     the symmetry operations in each class:
     E        1

   Cartesian axes

     site n.     atom                  positions (alat units)
         1           C   tau(   1) = (   0.0000000   0.0000000   0.0000000  )
         2           C   tau(   2) = (   1.6865806   1.6865806   1.6865806  )
         3           C   tau(   3) = (   0.0000000   3.3731612   3.3731612  )
         4           C   tau(   4) = (   1.6865806   5.0597417   5.0597417  )
         5           C   tau(   5) = (   3.3731612   0.0000000   3.3731612  )
         6           C   tau(   6) = (   5.0597417   1.6865806   5.0597417  )
         7           C   tau(   7) = (   3.3731612   3.3731612   0.0000000  )
         8           C   tau(   8) = (   5.0597417   5.0597417   1.6865806  )

   Crystallographic axes

     site n.     atom                  positions (cryst. coord.)
         1           C   tau(   1) = (  0.0000000  0.0000000  0.0000000  )
         2           C   tau(   2) = (  0.2500000  0.2500000  0.2500000  )
         3           C   tau(   3) = (  0.0000000  0.5000000  0.5000000  )
         4           C   tau(   4) = (  0.2500000  0.7500000  0.7500000  )
         5           C   tau(   5) = (  0.5000000  0.0000000  0.5000000  )
         6           C   tau(   6) = (  0.7500000  0.2500000  0.7500000  )
         7           C   tau(   7) = (  0.5000000  0.5000000  0.0000000  )
         8           C   tau(   8) = (  0.7500000  0.7500000  0.2500000  )

     number of k points=     1  Fermi-Dirac smearing, width (Ry)=  0.0001
                       cart. coord. in units 2pi/alat
        k(    1) = (   0.0000000   0.0000000   0.0000000), wk =   2.0000000

                       cryst. coord.
        k(    1) = (   0.0000000   0.0000000   0.0000000), wk =   2.0000000

     Dense  grid:   117377 G-vectors     FFT dimensions: (  64,  64,  64)

     Largest allocated arrays     est. size (Mb)     dimensions
        Kohn-Sham Wavefunctions         0.01 Mb     (     31,   20)
        NL pseudopotentials             0.00 Mb     (     31,    8)
        Each V/rho on FFT grid          0.06 Mb     (   4096)
        Each G-vector array             0.00 Mb     (    225)
        G-vector shells                 0.00 Mb     (    107)
     Largest temporary arrays     est. size (Mb)     dimensions
        Auxiliary wavefunctions         0.04 Mb     (     31,   80)
        Each subspace H/S matrix        0.10 Mb     (  80,  80)
        Each <psi_i|beta_j> matrix      0.00 Mb     (      8,   20)
        Arrays for rho mixing           0.50 Mb     (   4096,   8)

     Initial potential from superposition of free atoms

     starting charge    2.54647, renormalised to   32.00000
     Starting wfc are   32 randomized atomic wfcs

     total cpu time spent up to now is        5.5 secs

     per-process dynamical memory:    10.2 Mb

     Self-consistent Calculation

     iteration #  1     ecut=   200.00 Ry     beta=0.70
     Davidson diagonalization with overlap
     ethr =  1.00E-02,  avg # of iterations =  3.0

     total cpu time spent up to now is        6.3 secs

     total energy              =     -89.80558224 Ry
     Harris-Foulkes estimate   =     -90.22517223 Ry
     estimated scf accuracy    <       0.78879857 Ry

     iteration #  2     ecut=   200.00 Ry     beta=0.70
     Davidson diagonalization with overlap
     ethr =  2.46E-03,  avg # of iterations =  2.0

     total cpu time spent up to now is        6.9 secs

     total energy              =     -89.87392706 Ry
     Harris-Foulkes estimate   =     -89.87710279 Ry
     estimated scf accuracy    <       0.01222377 Ry

     iteration #  3     ecut=   200.00 Ry     beta=0.70
     Davidson diagonalization with overlap
     ethr =  3.82E-05,  avg # of iterations =  7.0

     total cpu time spent up to now is        7.9 secs

     total energy              =     -89.87578775 Ry
     Harris-Foulkes estimate   =     -89.87592572 Ry
     estimated scf accuracy    <       0.00061101 Ry

     iteration #  4     ecut=   200.00 Ry     beta=0.70
     Davidson diagonalization with overlap
     ethr =  1.91E-06,  avg # of iterations =  9.0

     total cpu time spent up to now is        8.7 secs

     total energy              =     -89.87582738 Ry
     Harris-Foulkes estimate   =     -89.87592422 Ry
     estimated scf accuracy    <       0.00019026 Ry

     iteration #  5     ecut=   200.00 Ry     beta=0.70
     Davidson diagonalization with overlap
     ethr =  5.95E-07,  avg # of iterations =  2.0

     total cpu time spent up to now is        9.4 secs

     total energy              =     -89.87586338 Ry
     Harris-Foulkes estimate   =     -89.87586507 Ry
     estimated scf accuracy    <       0.00000389 Ry

     iteration #  6     ecut=   200.00 Ry     beta=0.70
     Davidson diagonalization with overlap
     ethr =  1.22E-08,  avg # of iterations =  4.0

     total cpu time spent up to now is       10.2 secs

     total energy              =     -89.87586573 Ry
     Harris-Foulkes estimate   =     -89.87586635 Ry
     estimated scf accuracy    <       0.00000180 Ry

     iteration #  7     ecut=   200.00 Ry     beta=0.70
     Davidson diagonalization with overlap
     ethr =  5.64E-09,  avg # of iterations =  2.0

     total cpu time spent up to now is       10.9 secs

     total energy              =     -89.87586576 Ry
     Harris-Foulkes estimate   =     -89.87586588 Ry
     estimated scf accuracy    <       0.00000027 Ry

     iteration #  8     ecut=   200.00 Ry     beta=0.70
     Davidson diagonalization with overlap
     ethr =  8.56E-10,  avg # of iterations =  3.0

     total cpu time spent up to now is       11.7 secs

     total energy              =     -89.87586584 Ry
     Harris-Foulkes estimate   =     -89.87586584 Ry
     estimated scf accuracy    <       0.00000002 Ry

     iteration #  9     ecut=   200.00 Ry     beta=0.70
     Davidson diagonalization with overlap
     ethr =  7.44E-11,  avg # of iterations =  2.0

     total cpu time spent up to now is       12.1 secs

     End of self-consistent calculation

          k = 0.0000 0.0000 0.0000 ( 14771 PWs)   bands (ev):

    -7.8768   0.8509   0.8510   0.8510   0.8510   0.8510   0.8510   7.2307
     7.2308   7.2308   7.2308   7.2308   7.2308  13.6819  13.6820  13.6820
    17.8621  17.8621  17.8622  17.8622

     occupation numbers 
     2.0000   2.0000   2.0000   2.0000   2.0000   2.0000   2.0000   2.0000
     2.0000   2.0000   2.0000   2.0000   2.0000   2.0000   2.0000   2.0000
     0.0000   0.0000   0.0000   0.0000

     the Fermi energy is    14.6468 ev

!    total energy              =     -89.87586584 Ry
     Harris-Foulkes estimate   =     -89.87586584 Ry
     estimated scf accuracy    <          5.1E-09 Ry

     The total energy is the sum of the following terms:

     one-electron contribution =      32.38575437 Ry
     hartree contribution      =       8.43758542 Ry
     xc contribution           =     -28.49386767 Ry
     ewald contribution        =    -102.20533796 Ry
     smearing contrib. (-TS)   =       0.00000000 Ry

     convergence has been achieved in   9 iterations

     Forces acting on atoms (Ry/au):

     atom    1 type  1   force =     0.00000593    0.00001743   -0.00001559
     atom    2 type  1   force =    -0.00000189    0.00000112    0.00000403
     atom    3 type  1   force =     0.00000659   -0.00001671    0.00001525
     atom    4 type  1   force =    -0.00000127   -0.00000018   -0.00000488
     atom    5 type  1   force =    -0.00000736    0.00001455    0.00001495
     atom    6 type  1   force =     0.00000344    0.00000045   -0.00000436
     atom    7 type  1   force =    -0.00000728   -0.00001826   -0.00001657
     atom    8 type  1   force =     0.00000183    0.00000159    0.00000716
     The non-local contrib.  to forces
     atom    1 type  1   force =    -0.00000741    0.00002598    0.00000225
     atom    2 type  1   force =     0.00000390   -0.00000051   -0.00000043
     atom    3 type  1   force =    -0.00000495   -0.00002580   -0.00000460
     atom    4 type  1   force =     0.00000062    0.00000228   -0.00000591
     atom    5 type  1   force =     0.00000042    0.00003004   -0.00001125
     atom    6 type  1   force =    -0.00000068   -0.00000293   -0.00000458
     atom    7 type  1   force =     0.00000934   -0.00002991    0.00000205
     atom    8 type  1   force =    -0.00000160    0.00000253    0.00000568
     The ionic contribution  to forces
     atom    1 type  1   force =     0.00000001    0.00000001    0.00000001
     atom    2 type  1   force =     0.00000002    0.00000002    0.00000002
     atom    3 type  1   force =     0.00000001   -0.00000002   -0.00000002
     atom    4 type  1   force =     0.00000002   -0.00000001   -0.00000001
     atom    5 type  1   force =    -0.00000002    0.00000001   -0.00000002
     atom    6 type  1   force =    -0.00000001    0.00000002   -0.00000001
     atom    7 type  1   force =    -0.00000002   -0.00000002    0.00000001
     atom    8 type  1   force =    -0.00000001   -0.00000001    0.00000002
     The local contribution  to forces
     atom    1 type  1   force =     0.00001318   -0.00000806   -0.00001830
     atom    2 type  1   force =    -0.00000662    0.00000103    0.00000545
     atom    3 type  1   force =     0.00001137    0.00000737    0.00002164
     atom    4 type  1   force =    -0.00000262   -0.00000310    0.00000134
     atom    5 type  1   force =    -0.00000888   -0.00001515    0.00002801
     atom    6 type  1   force =     0.00000373    0.00000275    0.00000053
     atom    7 type  1   force =    -0.00001781    0.00000996   -0.00001913
     atom    8 type  1   force =     0.00000299   -0.00000149    0.00000251
     The core correction contribution to forces
     atom    1 type  1   force =     0.00000000    0.00000000    0.00000000
     atom    2 type  1   force =     0.00000000    0.00000000    0.00000000
     atom    3 type  1   force =     0.00000000    0.00000000    0.00000000
     atom    4 type  1   force =     0.00000000    0.00000000    0.00000000
     atom    5 type  1   force =     0.00000000    0.00000000    0.00000000
     atom    6 type  1   force =     0.00000000    0.00000000    0.00000000
     atom    7 type  1   force =     0.00000000    0.00000000    0.00000000
     atom    8 type  1   force =     0.00000000    0.00000000    0.00000000
     The Hubbard contrib.    to forces
     atom    1 type  1   force =     0.00000000    0.00000000    0.00000000
     atom    2 type  1   force =     0.00000000    0.00000000    0.00000000
     atom    3 type  1   force =     0.00000000    0.00000000    0.00000000
     atom    4 type  1   force =     0.00000000    0.00000000    0.00000000
     atom    5 type  1   force =     0.00000000    0.00000000    0.00000000
     atom    6 type  1   force =     0.00000000    0.00000000    0.00000000
     atom    7 type  1   force =     0.00000000    0.00000000    0.00000000
     atom    8 type  1   force =     0.00000000    0.00000000    0.00000000
     The SCF correction term to forces
     atom    1 type  1   force =    -0.00000044   -0.00000111    0.00000107
     atom    2 type  1   force =     0.00000022   -0.00000002   -0.00000039
     atom    3 type  1   force =    -0.00000045    0.00000113   -0.00000115
     atom    4 type  1   force =     0.00000011    0.00000004    0.00000032
     atom    5 type  1   force =     0.00000052   -0.00000096   -0.00000116
     atom    6 type  1   force =    -0.00000020    0.00000000    0.00000032
     atom    7 type  1   force =     0.00000061    0.00000110    0.00000112
     atom    8 type  1   force =    -0.00000015   -0.00000006   -0.00000043

     Total force =     0.000049     Total SCF correction =     0.000003


     entering subroutine stress ...

          total   stress  (Ry/bohr**3)                   (kbar)     P=  359.80
   0.00244590   0.00000001   0.00000001        359.80      0.00      0.00
   0.00000001   0.00244590   0.00000001          0.00    359.80      0.00
   0.00000001   0.00000001   0.00244590          0.00      0.00    359.80

     kinetic stress (kbar)  23086.86      0.00      0.00
                                0.00  23086.85      0.00
                                0.00      0.00  23086.86

     local   stress (kbar)  -8510.12      0.00      0.00
                                0.00  -8510.11      0.00
                                0.00      0.00  -8510.11

     nonloc. stress (kbar)   4956.26      0.00      0.00
                                0.00   4956.26      0.00
                                0.00      0.00   4956.26

     hartree stress (kbar)   1347.48      0.00      0.00
                                0.00   1347.48      0.00
                                0.00      0.00   1347.48

     exc-cor stress (kbar)  -4198.48      0.00      0.00
                                0.00  -4198.48      0.00
                                0.00      0.00  -4198.48

     corecor stress (kbar)      0.00      0.00      0.00
                                0.00      0.00      0.00
                                0.00      0.00      0.00

     ewald   stress (kbar) -16322.20      0.00      0.00
                                0.00 -16322.20      0.00
                                0.00      0.00 -16322.20

     hubbard stress (kbar)      0.00      0.00      0.00
                                0.00      0.00      0.00
                                0.00      0.00      0.00

     london  stress (kbar)      0.00      0.00      0.00
                                0.00      0.00      0.00
                                0.00      0.00      0.00

     dft-nl  stress (kbar)      0.00      0.00      0.00
                                0.00      0.00      0.00
                                0.00      0.00      0.00



     Writing output data file pwscf.save
 
     init_run     :      4.24s CPU      4.24s WALL (       1 calls)
     electrons    :      6.66s CPU      6.66s WALL (       1 calls)
     forces       :      0.63s CPU      0.63s WALL (       1 calls)
     stress       :      0.58s CPU      0.58s WALL (       1 calls)

     Called by init_run:
     wfcinit      :      0.15s CPU      0.15s WALL (       1 calls)
     potinit      :      0.26s CPU      0.26s WALL (       1 calls)

     Called by electrons:
     c_bands      :      2.71s CPU      2.71s WALL (       9 calls)
     sum_band     :      0.46s CPU      0.46s WALL (       9 calls)
     v_of_rho     :      0.11s CPU      0.11s WALL (      10 calls)
     v_h          :      0.04s CPU      0.04s WALL (      10 calls)
     v_xc         :      0.08s CPU      0.08s WALL (      10 calls)
     mix_rho      :      0.06s CPU      0.06s WALL (       9 calls)

     Called by c_bands:
     init_us_2    :      0.01s CPU      0.01s WALL (      19 calls)
     cegterg      :      2.70s CPU      2.70s WALL (       9 calls)

     Called by sum_band:

     Called by *egterg:
     h_psi        :      2.25s CPU      2.25s WALL (      44 calls)
     g_psi        :      0.01s CPU      0.01s WALL (      34 calls)
     cdiaghg      :      0.51s CPU      0.51s WALL (      43 calls)
     cegterg:over :      0.01s CPU      0.01s WALL (      34 calls)
     cegterg:upda :      0.01s CPU      0.01s WALL (      34 calls)
     cegterg:last :      0.00s CPU      0.00s WALL (       9 calls)

     Called by h_psi:
     h_psi:vloc   :      2.23s CPU      2.23s WALL (      44 calls)
     h_psi:vnl    :      0.01s CPU      0.01s WALL (      44 calls)
     add_vuspsi   :      0.01s CPU      0.01s WALL (      44 calls)

     General routines
     calbec       :      0.38s CPU      0.38s WALL (      46 calls)
     fft          :      0.57s CPU      0.57s WALL (      44 calls)
     fftw         :      2.12s CPU      2.12s WALL (    1226 calls)
 
     Parallel routines
     fft_scatter  :      2.07s CPU      2.07s WALL (    1270 calls)
     EXX routines
 
     PWSCF        :    17.08s CPU        17.08s WALL

 
   This run was terminated on:  13:24:39   8Jul2014            

=------------------------------------------------------------------------------=
   JOB DONE.
=------------------------------------------------------------------------------=
