Tue Jul  8 13:59:13 UTC 2014
  Input file(s): vmc.in.xml 

=====================================================
                    QMCPACK 1.0.0 

  (c) Copyright 2003-  QMCPACK developers            

  Subversion branch 6312
  Last modified     2014-05-19 15:22:38 +0000 (Mon, 19 May 2014)
=====================================================
  Global options 
  async_swap=0 : using blocking send/recv for walker swaps 

  MPI Nodes            = 32
  MPI Nodes per group  = 32
  MPI Group ID         = 0
  OMP_NUM_THREADS      = 16
  Input XML = vmc.in.xml

  Project = vmc
  date    = 2014-07-08 13:59:18 UTC
  host    = Q02-I3-J01.vesta.itd
  user    = krogel

  hamiltonian has MPC. Will read density if it is found.
  Offset for the random number seeds based on time 310
  Random number offset = 310  seeds = 2069-6329
  ParticleSetPool::putLattice
  Create Global SuperCell 
  Simulation cell radius = 3.373161
  Wigner-Seitz    radius = 3.373161
<unitcell>
<parameter name="lattice">
      6.7463222900      0.0000000000      0.0000000000
      0.0000000000      6.7463222900      0.0000000000
      0.0000000000      0.0000000000      6.7463222900
</parameter>
<parameter name="bconds">  p  p  p </parameter>
<note>
Volume (A^3) = 307.0444518570
Reciprocal vectors without 2*pi.
g_1 =       0.1482289101      0.0000000000      0.0000000000
g_2 =       0.0000000000      0.1482289101      0.0000000000
g_3 =       0.0000000000      0.0000000000      0.1482289101
Metric tensor in real-space.
h_1 = 45.5128644406 0.0000000000 0.0000000000 
h_2 = 0.0000000000 45.5128644406 0.0000000000 
h_3 = 0.0000000000 0.0000000000 45.5128644406 
Metric tensor in g-space.
h_1 = 0.8674122820 0.0000000000 0.0000000000 
h_2 = 0.0000000000 0.8674122820 0.0000000000 
h_3 = 0.0000000000 0.0000000000 0.8674122820 
</note>
<note>
	Long-range breakup parameters:
	rc*kc = 15.0000000000; rc = 1000000.0000000000; kc = 0.0000000000

</note>
</unitcell>
  ParticleSetPool::put
  Creating e particleset
  Initializing the lattice of e by the global supercell
  XMLParticleParser::putSpecial
  All the species have the same mass 1.0000000000
Particles are grouped. Safe to use groups 
	Long-range breakup parameters:
	rc*kc = 15.0000000000; rc = 3.3731611450; kc = 4.4468673020

	WignerSeitzRadius = 3.3731611450

	SimulationCellRadius = 3.3731611450

	Long-range breakup parameters:
	rc*kc = 15.0000000000; rc = 3.3731611450; kc = 4.4468673020

	WignerSeitzRadius = 3.3731611450

	SimulationCellRadius = 3.3731611450

--------------------------------------- 
<unitcell>
<parameter name="lattice">
      6.7463222900      0.0000000000      0.0000000000
      0.0000000000      6.7463222900      0.0000000000
      0.0000000000      0.0000000000      6.7463222900
</parameter>
<parameter name="bconds">  p  p  p </parameter>
<note>
Volume (A^3) = 307.0444518570
Reciprocal vectors without 2*pi.
g_1 =       0.1482289101      0.0000000000      0.0000000000
g_2 =       0.0000000000      0.1482289101      0.0000000000
g_3 =       0.0000000000      0.0000000000      0.1482289101
Metric tensor in real-space.
h_1 = 45.5128644406 0.0000000000 0.0000000000 
h_2 = 0.0000000000 45.5128644406 0.0000000000 
h_3 = 0.0000000000 0.0000000000 45.5128644406 
Metric tensor in g-space.
h_1 = 0.8674122820 0.0000000000 0.0000000000 
h_2 = 0.0000000000 0.8674122820 0.0000000000 
h_3 = 0.0000000000 0.0000000000 0.8674122820 
</note>
<note>
	Long-range breakup parameters:
	rc*kc = 15.0000000000; rc = 3.3731611450; kc = 4.4468673020

</note>
</unitcell>
--------------------------------------- 

  Creating Structure Factor for periodic systems 4.4468673020
  KContainer initialised with cutoff 4.4468673020
   # of K-shell  = 21
   # of K points = 460
e
  ParticleSetPool::put
  Creating ion0 particleset
  Initializing the lattice of ion0 by the global supercell
  XMLParticleParser::putSpecial
  All the species have the same mass 21894.7135906000
Particles are grouped. Safe to use groups 
	Long-range breakup parameters:
	rc*kc = 15.0000000000; rc = 3.3731611450; kc = 4.4468673020

	WignerSeitzRadius = 3.3731611450

	SimulationCellRadius = 3.3731611450

	Long-range breakup parameters:
	rc*kc = 15.0000000000; rc = 3.3731611450; kc = 4.4468673020

	WignerSeitzRadius = 3.3731611450

	SimulationCellRadius = 3.3731611450

--------------------------------------- 
<unitcell>
<parameter name="lattice">
      6.7463222900      0.0000000000      0.0000000000
      0.0000000000      6.7463222900      0.0000000000
      0.0000000000      0.0000000000      6.7463222900
</parameter>
<parameter name="bconds">  p  p  p </parameter>
<note>
Volume (A^3) = 307.0444518570
Reciprocal vectors without 2*pi.
g_1 =       0.1482289101      0.0000000000      0.0000000000
g_2 =       0.0000000000      0.1482289101      0.0000000000
g_3 =       0.0000000000      0.0000000000      0.1482289101
Metric tensor in real-space.
h_1 = 45.5128644406 0.0000000000 0.0000000000 
h_2 = 0.0000000000 45.5128644406 0.0000000000 
h_3 = 0.0000000000 0.0000000000 45.5128644406 
Metric tensor in g-space.
h_1 = 0.8674122820 0.0000000000 0.0000000000 
h_2 = 0.0000000000 0.8674122820 0.0000000000 
h_3 = 0.0000000000 0.0000000000 0.8674122820 
</note>
<note>
	Long-range breakup parameters:
	rc*kc = 15.0000000000; rc = 3.3731611450; kc = 4.4468673020

</note>
</unitcell>
--------------------------------------- 

  Creating Structure Factor for periodic systems 4.4468673020
  KContainer initialised with cutoff 4.4468673020
   # of K-shell  = 21
   # of K points = 460
ion0
 Adding WavefunctionFactory for psi0
  WaveFunctionFactory::build
building sposet collection of type bspline
  BasisSetFactory::createBasisSet
EinsplineSetBuilder:  using libeinspline for B-spline orbitals.

Built BasisSetBuilder "bspline" of type bspline
  Building SPOSet "spo_ud" with bspline BasisSetBuilder
TOKEN=0 createSPOSetFromXML /soft/applications/qmcpack/src/QMCWaveFunctions/EinsplineSetBuilder_createSPOs.cpp 42
  Distance table for AA: source/target = e
    PBC=bulk Orthorhombic=yes Using SymmetricDTD<T,DIM,PPPO> 9
 Using bounding box/reduced coordinates with 
  ... ParticleSet::addTable Create Table #0 e_e
  Distance table for AB: source = ion0 target = e
    PBC=bulk Orthorhombic=yes Using AsymmetricDTD<T,D,PPPO> 9
 Using bonding box/reduced coordinates 
  ... ParticleSet::addTable Create Table #1 ion0_e
  Reading 16 orbitals from HDF5 file.
TOKEN=1 ReadOrbitalInfo /soft/applications/qmcpack/src/QMCWaveFunctions/EinsplineSetBuilderOld.cpp 34
  HDF5 orbital file version 2.1.0
TOKEN=2 ReadOrbitalInfo_ESHDF /soft/applications/qmcpack/src/QMCWaveFunctions/EinsplineSetBuilderESHDF.fft.cpp 47
  Reading orbital file in ESHDF format.
  ESHDF orbital file version 2.1.0
  Lattice = 
    [  6.746322  0.000000  0.000000
       0.000000  6.746322  0.000000
       0.000000  0.000000  6.746322 ]
TOKEN=3 CheckLattice /soft/applications/qmcpack/src/QMCWaveFunctions/EinsplineSetBuilderCommon.cpp 100
  SuperLattice = 
    [  6.746322  0.000000  0.000000
       0.000000  6.746322  0.000000
       0.000000  0.000000  6.746322 ]
bands=20, elecs=32, spins=1, twists=1, muffin tins=0, core states=0
atomic orbital=0
Atom type(0) = 6
Atom type(1) = 6
Atom type(2) = 6
Atom type(3) = 6
Atom type(4) = 6
Atom type(5) = 6
Atom type(6) = 6
Atom type(7) = 6
  Read 117377 density G-vectors.
  EinsplineSetBuilder found density in the HDF5 file.
  Read 0 VHXC G-vectors.
TIMER  EinsplineSetBuilder::ReadOrbitalInfo 0.0827049144
TIMER  EinsplineSetBuilder::BroadcastOrbitalInfo 0.0092051200
Found 1 distinct supercell twists.
number of things
1
1
Super twist #0:  [   0.00000   0.00000   0.00000 ]
  Using supercell twist 0:  [   0.00000   0.00000   0.00000]
Using 1 copies of twist angle [-0.000, -0.000, -0.000]
Using real orbitals.
TOKEN=4 TileIons /soft/applications/qmcpack/src/QMCWaveFunctions/EinsplineSetBuilderCommon.cpp 295
TOKEN=5 OccupyBands /soft/applications/qmcpack/src/QMCWaveFunctions/EinsplineSetBuilderCommon.cpp 763
TOKEN=6 OccupyBands_ESHDF /soft/applications/qmcpack/src/QMCWaveFunctions/EinsplineSetBuilderESHDF.fft.cpp 308
Sorting the bands now:
We will read 16 distinct orbitals.
There are 0 core states and 16 valence states.
Rcut = 0.0000000000
dilation = 1
TOKEN=7 bcastSortBands /soft/applications/qmcpack/src/QMCWaveFunctions/einspline_helper.hpp 407
BandInfoGroup::selectBands bigspace has 20 distinct orbitals 
BandInfoGroup::selectBands using distinct orbitals [0,16)
  Number of distinct bands 16
  First Band index 0
  First SPO index 0
  Size of SPOs 16
  SplineC2XAdoptorReader::create_spline_set(spin,SPE*)
  AdoptorName = SplineR2RAdoptor
  Using real einspline table
NumDistinctOrbitals 16 numOrbs = 16
  TwistIndex = 0 TwistAngle      -0.0000000000     -0.0000000000     -0.0000000000
   HalfG =                  0                 0                 0
TOKEN=8 ReadGvectors_ESHDF /soft/applications/qmcpack/src/QMCWaveFunctions/EinsplineSetBuilderReadBands_ESHDF.cpp 658
B-spline mesh factor is 1.0000000000
B-spline mesh size is (60, 60, 60)
Maxmimum number of Gvecs 14771
  Using meshsize=                60                60                60
  vs input meshsize=                60                60                60
  Time to read the table in einspline.tile_100010001.spin_0.tw_0.l0u16.g60x60x60.h5 = 0.0054897856
  SplineAdoptorReader initialize_spline_slow 1.2016567463 sec
MEMORY increase 15 MB BsplineSetReder
   Using Identity for the LCOrbitalSet 
  WaveFunctionFactory::addFermionTerm
  SlaterDetBuilder::put(xmlNodePtr)
  SlaterDetBuilder::putDeterminant(xmlNodePtr,int)
  Creating a determinant updet group=0 sposet=spo_ud
  Reusing a SPO set spo_ud

  SlaterDetBuilder::putDeterminant(xmlNodePtr,int)
  Creating a determinant downdet group=1 sposet=spo_ud
  Reusing a SPO set spo_ud

  FermionWF=SlaterDet
  JastrowBuilder::addOneBody(xmlNodePtr)

  Using BsplineBuilder for one-body jastrow with B-spline functions
  BsplineJastrowBuilder::put(xmlNodePtr)
  BsplineJastrowBuilder::createOneBodyJastrow(xmlNodePtr)
  ... ParticleSet::addTable Reuse Table #1 ion0_e
  ... ParticleSet::addTable Reuse Table #1 ion0_e
  BsplineFunctor::put(xmlNodePtr)
 size = 8 parameters 
 cusp = 0.0000000000
 rcut = 4.0000000000
Parameter     Name      Value
eC_0 0.0000000000 1 1  ON 0
eC_1 0.0000000000 1 1  ON 1
eC_2 0.0000000000 1 1  ON 2
eC_3 0.0000000000 1 1  ON 3
eC_4 0.0000000000 1 1  ON 4
eC_5 0.0000000000 1 1  ON 5
eC_6 0.0000000000 1 1  ON 6
eC_7 0.0000000000 1 1  ON 7
  JastrowBuilder::addTwoBody(xmlNodePtr)
  BsplineJastrowBuilder::put(xmlNodePtr)
  BsplineJastrowBuilder adds a functor with cusp = -0.2500000000
  BsplineFunctor::put(xmlNodePtr)
  Jastrow cutoff unspecified.  Setting to Wigner-Seitz radius = 3.3731611450.
 size = 8 parameters 
 cusp = -0.2500000000
 rcut = 3.3731611450
Parameter     Name      Value
uu_0 0.3279617933 1 1  ON 0
uu_1 0.2623369547 1 1  ON 1
uu_2 0.1867527813 1 1  ON 2
uu_3 0.1183013100 1 1  ON 3
uu_4 0.0666709788 1 1  ON 4
uu_5 0.0334186828 1 1  ON 5
uu_6 0.0148937137 1 1  ON 6
uu_7 0.0058994968 1 1  ON 7
  BsplineJastrowBuilder adds a functor with cusp = -0.5000000000
  BsplineFunctor::put(xmlNodePtr)
  Jastrow cutoff unspecified.  Setting to Wigner-Seitz radius = 3.3731611450.
 size = 8 parameters 
 cusp = -0.5000000000
 rcut = 3.3731611450
Parameter     Name      Value
ud_0 0.4623614602 1 1  ON 0
ud_1 0.3478081099 1 1  ON 1
ud_2 0.2347908043 1 1  ON 2
ud_3 0.1421625578 1 1  ON 3
ud_4 0.0771456613 1 1  ON 4
ud_5 0.0374824090 1 1  ON 5
ud_6 0.0162869955 1 1  ON 6
ud_7 0.0063216583 1 1  ON 7
  HamiltonianPool::put
  QMCHamiltonian::addOperator Kinetic to H, physical Hamiltonian 
  ForceBase::ForceBase
  ... ParticleSet::addTable Reuse Table #0 e_e
  CoulombPBCAA::CoulombPBCAA
  ... ParticleSet::addTable Reuse Table #0 e_e

  Creating CoulombHandler with the optimal breakup. 
  KContainer initialised with cutoff 27.9404912948
   # of K-shell  = 753
   # of K points = 112968
  NUMBER OF OPT_BREAK KVECS = -884272791
 finding kc:  4.4468673020 , -1.0000000000
  LRBreakp parameter Kc =4.4468673020
    Continuum approximation in k = [27.9404912948,1778.7469207908)
   PBCAA self-interaction term -14.5359253921
   PBCAA total constant -22.2199314919
  Maximum K shell 20
  Number of k vectors 460
  Fixed Coulomb potential for e
    e-e Madelung Const. =-0.2027808420
    Vtot     =0.0000000000
  QMCHamiltonian::addOperator ElecElec to H, physical Hamiltonian 
  ForceBase::ForceBase
  Distance table for AA: source/target = ion0
    PBC=bulk Orthorhombic=yes Using SymmetricDTD<T,DIM,PPPO> 9
 Using bounding box/reduced coordinates with 
  ... ParticleSet::addTable Create Table #0 ion0_ion0
  CoulombPBCAA::CoulombPBCAA
  ... ParticleSet::addTable Reuse Table #0 ion0_ion0
  Clone CoulombHandler. 
   PBCAA self-interaction term -58.1437015684
   PBCAA total constant -65.8277076681
  Maximum K shell 20
  Number of k vectors 460
  Fixed Coulomb potential for ion0
    e-e Madelung Const. =-0.2027808420
    Vtot     =-51.1026786711
  QMCHamiltonian::addOperator IonIon to H, physical Hamiltonian 

  ECPotential builder for pseudopotential 

  Adding pseudopotential for C
   Linear grid  ri=0.0000000000 rf=10.0000000000 npts = 10001
    ECPComponentBuilder::buildSemiLocalAndLocal 
    Assuming Hartree unit
   Number of angular momentum channels 2
   Maximum angular momentum channel 1
   Creating a Linear Grid Rmax=1.7000000000
  Using global grid with delta = 0.0010000000
   Making L=1 a local potential with a radial cutoff of 9.9980000000
  NonLocalECPComponent::resize_warrays 
    Non-local pseudopotential parameters
    Maximum angular mementum = 0
    Number of non-local channels = 1
       l(0)=0
    Cutoff radius = 1.7000000000
    Spherical grids and weights: 
             1.0000000000      0.0000000000      0.0000000000        0.0833333333
            -1.0000000000      0.0000000000      0.0000000000        0.0833333333
             0.4472135955      0.8944271910      0.0000000000        0.0833333333
            -0.4472135955      0.7236067977      0.5257311121        0.0833333333
             0.4472135955      0.2763932023      0.8506508084        0.0833333333
            -0.4472135955     -0.2763932023      0.8506508084        0.0833333333
             0.4472135955     -0.7236067977      0.5257311121        0.0833333333
            -0.4472135955     -0.8944271910      0.0000000000        0.0833333333
             0.4472135955     -0.7236067977     -0.5257311121        0.0833333333
            -0.4472135955     -0.2763932023     -0.8506508084        0.0833333333
             0.4472135955      0.2763932023     -0.8506508084        0.0833333333
            -0.4472135955      0.7236067977     -0.5257311121        0.0833333333
    Maximum cutoff radius 1.7000000000
  ForceBase::ForceBase
  ... ParticleSet::addTable Reuse Table #1 ion0_e
  CoulombPBCAB::CoulombPBCAB
  ... ParticleSet::addTable Reuse Table #1 ion0_e
  Clone CoulombHandler. 
   Constant of PBCAB 15.3680121995
  Maximum K shell 20
  Number of k vectors 460
    CoulombPBCAB::add 
 Setting a linear grid=[0,3.3731611450) number of grid =3374
    Creating the short-range pseudopotential for species 0
  QMCHamiltonian::addOperator LocalECP to H, physical Hamiltonian 
  ForceBase::ForceBase
  ... ParticleSet::addTable Reuse Table #1 ion0_e
  ... ParticleSet::addTable Reuse Table #1 ion0_e

  Using NonLocalECP potential 
    Maximum grid on a sphere for NonLocalECPotential: 12
WARNING ParticleSet::checkBoundBox 3.4000000000> SimulationCellRadius=3.3731611450
 Using SLOW method for the sphere update. 
  QMCHamiltonian::addOperator NonLocalECP to H, physical Hamiltonian 
  ... ParticleSet::addTable Reuse Table #0 e_e

  === Initializing MPC interaction === 
  Using 2469 G-vectors for MPC interaction.
   Using real-space box of size [32,32,32] for MPC spline.
    Linear extrap    = 3.062287880378e-01
    Quadratic extrap = 3.062287880229e-01
    Worst MPC discrepancy:
      Linear Extrap   : -2.48667122349851e-04
      Quadratic Extrap: -2.48673391823207e-04
  Constant potential = 1.808390513440e+02
  === MPC interaction initialized === 

  QMCHamiltonian::addOperator MPC to auxH 
  QMCHamiltonian::addOperator KEcorr to auxH 

  QMCHamiltonian::add2WalkerProperty added
    7 to P::PropertyList 
    0 to P::Collectables 
    starting Index of the observables in P::PropertyList = 9
  Hamiltonian disables VirtualMoves
ParticleSetPool::randomize 
=========================================================
 Summary of QMC systems 
=========================================================
ParticleSetPool has: 

  ParticleSet e : 0 16 32 

    32

    u  5.0888127731e+00  5.0624438561e+00  2.3379148800e+00
    u  2.3809532993e+00  6.3582604112e+00  3.3848589548e+00
    u  1.4778957123e+00  6.9227752151e-01  3.8859706464e+00
    u  3.9969360449e+00  6.0535905059e+00  4.0485229270e+00
    u  1.4380282866e+00  5.5901698991e+00  5.9751860628e+00
    u  1.0367002082e-01  1.5169369924e-01  2.3073714500e+00
    u  3.3228410026e+00  1.0841974747e+00  5.6370837685e+00
    u  5.4373408865e+00  4.0247788411e+00  3.0613672780e+00
    u  3.7510495442e+00  4.1652979020e+00  5.2391230510e+00
    u  3.7544795042e+00  4.9702191501e+00  8.8884087760e-01
    u  1.9488828287e+00  4.5540781918e+00  1.4566353208e+00
    u  3.5092115431e+00  5.9060475778e+00  5.8952098859e+00
    u  4.8836630582e+00  5.9963858438e+00  2.0344397096e+00
    u  2.4402986258e-01  6.2560167497e-02  4.1791211902e+00
    u  3.1396056095e+00  4.0783944795e+00  1.8948645740e+00
    u  5.5392798036e+00  3.0486515967e+00  2.2251616674e+00
    d  6.2734371525e+00  2.3273117828e+00  4.3859929675e+00
    d  4.2179103915e-01  1.4577753967e+00  1.5510301019e-01
    d  2.1040785022e+00  3.9049507558e+00  4.5012160409e+00
    d  5.5516465584e+00  4.1540036195e-01  5.3473895042e+00
    d  5.8259271651e+00  6.4730350133e+00  1.6760158707e-01
    d  3.8792325302e+00  1.6378554142e+00  4.6969447724e+00
    d  1.2142151901e+00  3.5340933142e+00  5.3516326057e+00
    d  1.3736573924e+00  1.1471007256e+00  3.4735525979e+00
    d  1.0878725237e+00  1.8630272555e+00  6.3653505907e+00
    d  2.6574089668e+00  5.8871435037e+00  1.6186960585e+00
    d  7.9568784543e-01  3.0036136025e+00  1.9861808003e-01
    d  4.3611014923e+00  5.2679786122e+00  5.1995305302e+00
    d  1.5088284482e-01  5.5191403546e+00  5.4133977331e+00
    d  1.2455867669e+00  9.7970374917e-01  2.8523984560e+00
    d  2.5612165496e+00  6.4816684820e+00  4.6813890312e+00
    d  5.6527454427e+00  5.3841437259e+00  5.4261836662e+00

  ParticleSet ion0 : 0 8 

    8

    C  0.0000000000e+00  0.0000000000e+00  0.0000000000e+00
    C  1.6865805700e+00  1.6865805700e+00  1.6865805700e+00
    C  0.0000000000e+00  3.3731611500e+00  3.3731611500e+00
    C  1.6865805700e+00  5.0597417200e+00  5.0597417200e+00
    C  3.3731611500e+00  0.0000000000e+00  3.3731611500e+00
    C  5.0597417200e+00  1.6865805700e+00  5.0597417200e+00
    C  3.3731611500e+00  3.3731611500e+00  0.0000000000e+00
    C  5.0597417200e+00  5.0597417200e+00  1.6865805700e+00

  Hamiltonian h0
  Kinetic         Kinetic energy
  ElecElec        CoulombPBCAA potential: e_e
  IonIon          CoulombPBCAA potential: ion0_ion0
  LocalECP        CoulombPBCAB potential source: ion0
  NonLocalECP     NonLocalECPotential: ion0

=========================================================
  Start VMCSingleOMP
  File Root vmc.s000 append = no 
=========================================================
  Adding 16 walkers to 0 existing sets
  Total number of walkers: 5.1200000000e+02
  Total weight: 5.1200000000e+02
  Resetting Properties of the walkers 1 x 16

<vmc function="put">
  qmc_counter=0  my_counter=0
  time step      = 4.0000000000e-01
  blocks         = 200
  steps          = 10
  substeps       = 2
  current        = 0
  target samples = 0.0000000000e+00
  walkers/mpi    = 16

  stepsbetweensamples = 2010
<parameter name="blocks" condition="int">200</parameter>
<parameter name="check_properties" condition="int">100</parameter>
<parameter name="checkproperties" condition="int">100</parameter>
<parameter name="current" condition="int">0</parameter>
<parameter name="dmcwalkersperthread" condition="real">0.0000000000e+00</parameter>
<parameter name="maxcpusecs" condition="real">3.6000000000e+05</parameter>
<parameter name="record_configs" condition="int">0</parameter>
<parameter name="record_walkers" condition="int">2010</parameter>
<parameter name="recordconfigs" condition="int">0</parameter>
<parameter name="recordwalkers" condition="int">2010</parameter>
<parameter name="rewind" condition="int">0</parameter>
<parameter name="samples" condition="real">0.0000000000e+00</parameter>
<parameter name="samplesperthread" condition="real">0.0000000000e+00</parameter>
<parameter name="steps" condition="int">10</parameter>
<parameter name="stepsbetweensamples" condition="int">2010</parameter>
<parameter name="store_configs" condition="int">0</parameter>
<parameter name="storeconfigs" condition="int">0</parameter>
<parameter name="sub_steps" condition="int">2</parameter>
<parameter name="substeps" condition="int">2</parameter>
<parameter name="tau" condition="au">4.0000000000e-01</parameter>
<parameter name="time_step" condition="au">4.0000000000e-01</parameter>
<parameter name="timestep" condition="au">4.0000000000e-01</parameter>
<parameter name="use_drift" condition="string">yes</parameter>
<parameter name="usedrift" condition="string">yes</parameter>
<parameter name="walkers" condition="int">16</parameter>
<parameter name="warmup_steps" condition="int">20</parameter>
<parameter name="warmupsteps" condition="int">20</parameter>
  DumpConfig==false Nothing (configurations, state) will be saved.
  Walker Samples are dumped every 2010 steps.
</vmc>

 TraceManager::put() 1
  traces requested          : 0
  method allows traces      : 1
  traces available          : 0

  Adding a default LocalEnergyEstimator for the MainEstimator 
  CloneManager::makeClones makes 16 clones for W/Psi/H.
  Cloning methods for both Psi and H are used
  Initial partition of walkers 0 1 2 3 4 5 6 7 8 9 10 11 12 13 14 15 16 
  PbyP moves with drift, using VMCUpdatePbyPWithDriftFast

  Total Sample Size   =0
  Walker distribution on root = 0 1 2 3 4 5 6 7 8 9 10 11 12 13 14 15 16 
  Anonymous Buffer size per walker 8231
MEMORY increase 1 MB VMCSingleOMP::resetRun
====================================================
  SimpleFixedNodeBranch::finalize after a VMC block
    QMC counter        = 0
    time step          = 0.4
    reference energy   = -44.9407
    reference variance = 1.3011
====================================================
  QMC Execution time = 5.7765600764e+01 secs 
  Total Execution time = 5.7801745376e+01 secs

=========================================================
  A new xml input file : vmc.s000.cont.xml
