----- GAMESS execution script 'rungms' -----
This job is running on host Kylin
under operating system Linux at Wed May 18 22:17:22 CDT 2016
Available scratch disk space (Kbyte units) at beginning of the job is
Filesystem      1K-blocks       Used  Available Use% Mounted on
/dev/dm-0      3778803096 1213052140 2373775740  34% /
GAMESS temporary binary files will be written to /scr/yyang173
GAMESS supplementary output files will be written to /home/yyang173/Desktop/labs/lab3_advanced_molecules/exercises/ex3_multi-slater-jastrow/casscf/gms
Copying input file h2o.cas.inp to your run's scratch directory...

 Distributed Data Interface kickoff program.
 Initiating 16 compute processes on 1 nodes to run the following command:
 /home/yyang173/Software/gamess/gamess.00.x h2o.cas 

          ******************************************************
          *         GAMESS VERSION =  1 MAY 2013 (R1)          *
          *             FROM IOWA STATE UNIVERSITY             *
          * M.W.SCHMIDT, K.K.BALDRIDGE, J.A.BOATZ, S.T.ELBERT, *
          *   M.S.GORDON, J.H.JENSEN, S.KOSEKI, N.MATSUNAGA,   *
          *          K.A.NGUYEN, S.J.SU, T.L.WINDUS,           *
          *       TOGETHER WITH M.DUPUIS, J.A.MONTGOMERY       *
          *         J.COMPUT.CHEM.  14, 1347-1363(1993)        *
          **************** 64 BIT INTEL VERSION ****************

  SINCE 1993, STUDENTS AND POSTDOCS WORKING AT IOWA STATE UNIVERSITY
  AND ALSO IN THEIR VARIOUS JOBS AFTER LEAVING ISU HAVE MADE IMPORTANT
  CONTRIBUTIONS TO THE CODE:
     IVANA ADAMOVIC, CHRISTINE AIKENS, YURI ALEXEEV, POOJA ARORA,
     ANDREY ASADCHEV, ROB BELL, PRADIPTA BANDYOPADHYAY, JONATHAN BENTZ,
     BRETT BODE, GALINA CHABAN, WEI CHEN, CHEOL HO CHOI, PAUL DAY,
     ALBERT DEFUSCO, TIM DUDLEY, DMITRI FEDOROV, GRAHAM FLETCHER,
     MARK FREITAG, KURT GLAESEMANN, DAN KEMP, GRANT MERRILL,
     NORIYUKI MINEZAWA, JONATHAN MULLIN, TAKESHI NAGATA,
     SEAN NEDD, HEATHER NETZLOFF, BOSILJKA NJEGIC, RYAN OLSON, MIKE PAK,
     JIM SHOEMAKER, LYUDMILA SLIPCHENKO, SAROM SOK, JIE SONG,
     TETSUYA TAKETSUGU, SIMON WEBB, SOOHAENG YOO, FEDERICO ZAHARIEV

  ADDITIONAL CODE HAS BEEN PROVIDED BY COLLABORATORS IN OTHER GROUPS:
     IOWA STATE UNIVERSITY:
          JOE IVANIC, LAIMUTIS BYTAUTAS, KLAUS RUEDENBERG
     UNIVERSITY OF TOKYO: KIMIHIKO HIRAO, TAKAHITO NAKAJIMA,
          TAKAO TSUNEDA, MUNEAKI KAMIYA, SUSUMU YANAGISAWA,
          KIYOSHI YAGI, MAHITO CHIBA, SEIKEN TOKURA, NAOAKI KAWAKAMI
     UNIVERSITY OF AARHUS: FRANK JENSEN
     UNIVERSITY OF IOWA: VISVALDAS KAIRYS, HUI LI
     NATIONAL INST. OF STANDARDS AND TECHNOLOGY: WALT STEVENS, DAVID GARMER
     UNIVERSITY OF PISA: BENEDETTA MENNUCCI, JACOPO TOMASI
     UNIVERSITY OF MEMPHIS: HENRY KURTZ, PRAKASHAN KORAMBATH
     UNIVERSITY OF ALBERTA: TOBY ZENG, MARIUSZ KLOBUKOWSKI
     UNIVERSITY OF NEW ENGLAND: MARK SPACKMAN
     MIE UNIVERSITY: HIROAKI UMEDA
     MICHIGAN STATE UNIVERSITY:
          KAROL KOWALSKI, MARTA WLOCH, JEFFREY GOUR, JESSE LUTZ,
          WEI LI, PIOTR PIECUCH
     UNIVERSITY OF SILESIA: MONIKA MUSIAL, STANISLAW KUCHARSKI
     FACULTES UNIVERSITAIRES NOTRE-DAME DE LA PAIX:
          OLIVIER QUINET, BENOIT CHAMPAGNE
     UNIVERSITY OF CALIFORNIA - SANTA BARBARA: BERNARD KIRTMAN
     INSTITUTE FOR MOLECULAR SCIENCE:
          KAZUYA ISHIMURA, MICHIO KATOUDA, AND SHIGERU NAGASE
     UNIVERSITY OF NOTRE DAME: DAN CHIPMAN
     KYUSHU UNIVERSITY:
          HARUYUKI NAKANO,
          FENG LONG GU, JACEK KORCHOWIEC, MARCIN MAKOWSKI, AND YURIKO AOKI,
          HIROTOSHI MORI AND EISAKU MIYOSHI
     PENNSYLVANIA STATE UNIVERSITY:
          TZVETELIN IORDANOV, CHET SWALINA, JONATHAN SKONE,
          SHARON HAMMES-SCHIFFER
     WASEDA UNIVERSITY:
          MASATO KOBAYASHI, TOMOKO AKAMA, TSUGUKI TOUMA,
          TAKESHI YOSHIKAWA, YASUHIRO IKABATA, HIROMI NAKAI
     NANJING UNIVERSITY: SHUHUA LI
     UNIVERSITY OF NEBRASKA:
          PEIFENG SU, DEJUN SI, NANDUN THELLAMUREGE, YALI WANG, HUI LI
     UNIVERSITY OF ZURICH:
          ROBERTO PEVERATI, KIM BALDRIDGE
     N. COPERNICUS UNIVERSITY AND JACKSON STATE UNIVERSITY:
          MARIA BARYSZ


 PARALLEL VERSION RUNNING ON    16 PROCESSORS IN     1 NODES.

 EXECUTION OF GAMESS BEGUN Wed May 18 22:17:22 2016

            ECHO OF THE FIRST FEW INPUT CARDS -
 INPUT CARD> $CONTRL SCFTYP=MCSCF RUNTYP=ENERGY MULT=1                                      
 INPUT CARD>   ISPHER=1 EXETYP=RUN COORD=UNIQUE MAXIT=200 ECP=READ $END                     
 INPUT CARD> $SYSTEM MEMORY=150000000 $END                                                  
 INPUT CARD> $SCF DIRSCF=.TRUE. $END                                                        
 INPUT CARD> $GUESS GUESS=MOREAD NORB=57 $END                                               
 INPUT CARD> $DET GROUP=C2v NELS=8 NACT=8 PRTTOL=0.001 $END                                 
 INPUT CARD> $MCSCF MAXIT=200 $END                                                          
 INPUT CARD> $ECP                                                                           
 INPUT CARD>O-QMC GEN 2 1                                                                   
 INPUT CARD> 3                                                                              
 INPUT CARD> 6.00000000 1 9.29793903                                                        
 INPUT CARD> 55.78763416 3 8.86492204                                                       
 INPUT CARD> -38.81978498 2 8.62925665                                                      
 INPUT CARD> 1                                                                              
 INPUT CARD> 38.41914135 2 8.71924452                                                       
 INPUT CARD>H-QMC  GEN 0 0                                                                  
 INPUT CARD>3                                                                               
 INPUT CARD>1.000000000000 1 25.000000000000                                                
 INPUT CARD>25.000000000000 3 10.821821902641                                               
 INPUT CARD>-8.228005709676 2  9.368618758833                                               
 INPUT CARD>H-QMC                                                                           
 INPUT CARD> $END                                                                           
 INPUT CARD> $DATA                                                                          
 INPUT CARD>H2O                                                                             
 INPUT CARD>CNV      2                                                                      
 INPUT CARD>                                                                                
 INPUT CARD>O           8.0      0.0000000000      0.0000000000      0.0000000000           
 INPUT CARD>   S       9                                                                    
 INPUT CARD>     1              0.1253460000  0.05574100                                    
 INPUT CARD>     2              0.2680220000  0.30484800                                    
 INPUT CARD>     3              0.5730980000  0.45375200                                    
 INPUT CARD>     4              1.2254290000  0.29592600                                    
 INPUT CARD>     5              2.6202770000  0.01956700                                    
 INPUT CARD>     6              5.6028180000 -0.12862700                                    
 INPUT CARD>     7             11.9802450000  0.01202400                                    
 INPUT CARD>     8             25.6168010000  0.00040700                                    
 INPUT CARD>     9             54.7752160000 -0.00007600                                    
 INPUT CARD>   S       1                                                                    
 INPUT CARD>     1              1.6866330000  1.00000000                                    
 INPUT CARD>   S       1                                                                    
 INPUT CARD>     1              0.2379970000  1.00000000                                    
 INPUT CARD>   P       9                                                                    
 INPUT CARD>     1              0.0835980000  0.04495800                                    
 INPUT CARD>     2              0.1670170000  0.15017500                                    
 INPUT CARD>     3              0.3336730000  0.25599900                                    
 INPUT CARD>     4              0.6666270000  0.28187900                                    
 INPUT CARD>     5              1.3318160000  0.24283500                                    
 INPUT CARD>     6              2.6607610000  0.16113400                                    
 INPUT CARD>     7              5.3157850000  0.08230800                                    
 INPUT CARD>     8             10.6201080000  0.03989900                                    
  150000000 WORDS OF MEMORY AVAILABLE


     RUN TITLE
     ---------
 H2O                                                                             

 THE POINT GROUP OF THE MOLECULE IS CNV     
 THE ORDER OF THE PRINCIPAL AXIS IS     2
 *** WARNING! ATOM   2 SHELL   10 TYPE S HAS NORMALIZATION   4.42655533

 ATOM      ATOMIC                      COORDINATES (BOHR)
           CHARGE         X                   Y                   Z
 O           8.0     0.0000000000        0.0000000000        0.0000000000
 H           1.0    -0.0000000000       -1.4308249289        1.1078707576
 H           1.0     0.0000000000        1.4308249289        1.1078707576

          INTERNUCLEAR DISTANCES (ANGS.)
          ------------------------------

                1 O          2 H          3 H     

   1 O       0.0000000    0.9575970 *  0.9575970 *
   2 H       0.9575970 *  0.0000000    1.5143200 *
   3 H       0.9575970 *  1.5143200 *  0.0000000  

  * ... LESS THAN  3.000


     ATOMIC BASIS SET
     ----------------
 THE CONTRACTED PRIMITIVE FUNCTIONS HAVE BEEN UNNORMALIZED
 THE CONTRACTED BASIS FUNCTIONS ARE NOW NORMALIZED TO UNITY

  SHELL TYPE  PRIMITIVE        EXPONENT          CONTRACTION COEFFICIENT(S)

 O         

      1   S       1             0.1253460    0.055740958894
      1   S       2             0.2680220    0.304847775189
      1   S       3             0.5730980    0.453751665379
      1   S       4             1.2254290    0.295925781768
      1   S       5             2.6202770    0.019566985570
      1   S       6             5.6028180   -0.128626905144
      1   S       7            11.9802450    0.012023991133
      1   S       8            25.6168010    0.000406999700
      1   S       9            54.7752160   -0.000075999944

      2   S      10             1.6866330    1.000000000000

      3   S      11             0.2379970    1.000000000000

      4   P      12             0.0835980    0.044957980603
      4   P      13             0.1670170    0.150174935208
      4   P      14             0.3336730    0.255998889550
      4   P      15             0.6666270    0.281878878385
      4   P      16             1.3318160    0.242834895230
      4   P      17             2.6607610    0.161133930479
      4   P      18             5.3157850    0.082307964489
      4   P      19            10.6201080    0.039898982786
      4   P      20            21.2173180    0.004678997981

      5   P      21             0.1846960    1.000000000000

      6   P      22             0.6006210    1.000000000000

      7   D      23             0.6693400    1.000000000000

      8   D      24             2.4042780    1.000000000000

      9   F      25             1.4231040    1.000000000000

 H         

     16   S      26             8.7008878    0.062718224627
     16   S      27             1.9555205    0.261958542347
     16   S      28             0.5590436    0.757010458132

     17   S      29             0.1649254    1.000000000000

     18   S      30             0.0320625    1.000000000000

     19   P      31             0.7900744    1.000000000000

     20   P      32             0.1523514    1.000000000000

     21   D      33             0.8838179    1.000000000000

 TOTAL NUMBER OF BASIS SET SHELLS             =   21
 NUMBER OF CARTESIAN GAUSSIAN BASIS FUNCTIONS =   64
 NOTE: THIS RUN WILL RESTRICT THE MO VARIATION SPACE TO SPHERICAL HARMONICS.
 THE NUMBER OF ORBITALS KEPT IN THE VARIATIONAL SPACE WILL BE PRINTED LATER.
 NUMBER OF ELECTRONS                          =   10
 CHARGE OF MOLECULE                           =    0
 SPIN MULTIPLICITY                            =    1
 NUMBER OF OCCUPIED ORBITALS (ALPHA)          =    5
 NUMBER OF OCCUPIED ORBITALS (BETA )          =    5
 TOTAL NUMBER OF ATOMS                        =    3
 THE NUCLEAR REPULSION ENERGY IS        9.1912014082
 NOTE THIS RUN IS USING CORE POTENTIALS, AND THE NUMBER OF ELECTRONS,
 OCCUPIED ORBITALS, AND NUCLEAR REPULSION ENERGY WILL BE ADJUSTED BELOW
 AFTER REMOVAL OF THE CORE CHARGES.

     $CONTRL OPTIONS
     ---------------
 SCFTYP=MCSCF        RUNTYP=ENERGY       EXETYP=RUN     
 MPLEVL=       0     CITYP =NONE         CCTYP =NONE         VBTYP =NONE    
 DFTTYP=NONE         TDDFT =NONE    
 MULT  =       1     ICHARG=       0     NZVAR =       0     COORD =UNIQUE  
 PP    =READ         RELWFN=NONE         LOCAL =NONE         NUMGRD=       F
 ISPHER=       1     NOSYM =       0     MAXIT =     200     UNITS =ANGS    
 PLTORB=       F     MOLPLT=       F     AIMPAC=       F     FRIEND=        
 NPRINT=       7     IREST =       0     GEOM  =INPUT   
 NORMF =       0     NORMP =       0     ITOL  =      20     ICUT  =       9
 INTTYP=BEST         GRDTYP=BEST         QMTTOL= 1.0E-06

     $SYSTEM OPTIONS
     ---------------
  REPLICATED MEMORY=   150000000 WORDS (ON EVERY NODE).
 DISTRIBUTED MEMDDI=           0 MILLION WORDS IN AGGREGATE,
 MEMDDI DISTRIBUTED OVER  16 PROCESSORS IS           0 WORDS/PROCESSOR.
 TOTAL MEMORY REQUESTED ON EACH PROCESSOR=   150000000 WORDS.
 TIMLIM=      525600.00 MINUTES, OR     365.0 DAYS.
 PARALL= T  BALTYP=  DLB     KDIAG=    0  COREFL= F
 MXSEQ2=     300 MXSEQ3=     150

          --------------
          ECP POTENTIALS
          --------------

 PARAMETERS FOR "O-QMC   " ON ATOM    1 WITH ZCORE   2 AND LMAX  1 ARE
 FOR L= 1      COEFF    N           ZETA
    1        6.00000    1        9.29794
    2       55.78763    3        8.86492
    3      -38.81978    2        8.62926
 FOR L= 0      COEFF    N           ZETA
    1       38.41914    2        8.71924

 PARAMETERS FOR "H-QMC   " ON ATOM    2 WITH ZCORE   0 AND LMAX  0 ARE
 FOR L= 0      COEFF    N           ZETA
    1        1.00000    1       25.00000
    2       25.00000    3       10.82182
    3       -8.22801    2        9.36862

 PARAMETERS FOR "H-QMC   " ON ATOM    3 ARE THE SAME AS ATOM   2

 THE ECP RUN REMOVES    2 CORE ELECTRONS, AND THE SAME NUMBER OF PROTONS.
 NUMBER OF ELECTRONS KEPT IN THE CALCULATION IS =    8
 NUMBER OF OCCUPIED ORBITALS (ALPHA) KEPT IS    =    4
 NUMBER OF OCCUPIED ORBITALS (BETA ) KEPT IS    =    4
 THE ADJUSTED NUCLEAR REPULSION ENERGY=        6.9807632466
          ECP ANGULAR INTS.........     0.00 SECONDS

          ----------------
          PROPERTIES INPUT
          ----------------

     MOMENTS            FIELD           POTENTIAL          DENSITY
 IEMOM =       1   IEFLD =       0   IEPOT =       0   IEDEN =       0
 WHERE =COMASS     WHERE =NUCLEI     WHERE =NUCLEI     WHERE =NUCLEI  
 OUTPUT=BOTH       OUTPUT=BOTH       OUTPUT=BOTH       OUTPUT=BOTH    
 IEMINT=       0   IEFINT=       0                     IEDINT=       0
                                                       MORB  =       0

     -------------------------------
     INTEGRAL TRANSFORMATION OPTIONS
     -------------------------------
     NWORD  =            0
     CUTOFF = 1.0E-09     MPTRAN =       0
     DIRTRF =       F     AOINTS =DUP     

          ----------------------
          MCSCF INPUT PARAMETERS
          ----------------------
 CONVERGER SELECTION: FOCAS = F  SOSCF = T  FULLNR = F  QUD = F  JACOBI = F
 SECULAR EQUATION METHOD CISTEP = ALDET   
 --- GENERAL INPUT OPTIONS:
 MAXIT =     200  MICIT =       5  ACURCY= 1.000E-05
 DAMP  =   0.000  CANONC=       T  ENGTOL= 1.000E-10
 EKT   =       F  NPUNCH=       2  NWORD =         0
 REGENERATE CI AFTER CONVERGENCE = NONE    
 DIABATIZATION AFTER CONVERGENCE =        F
 --- INPUT FOR SOSCF CONVERGER:
 FORS  =       T  NOFO  =       1

          ----------------------
          INTEGRAL INPUT OPTIONS
          ----------------------
 NOPK  =       1 NORDER=       0 SCHWRZ=       F

     ------------------------------------------
     THE POINT GROUP IS CNV, NAXIS= 2, ORDER= 4
     ------------------------------------------

 -- VARIATIONAL SPACE WILL BE RESTRICTED TO PURE SPHERICAL HARMONICS ONLY --
 AFTER EXCLUDING CONTAMINANT COMBINATIONS FROM THE CARTESIAN GAUSSIAN BASIS
 SET, THE NUMBER OF SPHERICAL HARMONICS KEPT IN THE VARIATION SPACE IS   57

     DIMENSIONS OF THE SYMMETRY SUBSPACES ARE
 A1  =   22     A2  =    7     B1  =   11     B2  =   17

 ..... DONE SETTING UP THE RUN .....
 CPU     0: STEP CPU TIME=     0.05 TOTAL CPU TIME=        0.0 (    0.0 MIN)
 TOTAL WALL CLOCK TIME=        0.1 SECONDS, CPU UTILIZATION IS  62.50%

          ********************
          1 ELECTRON INTEGRALS
          ********************
 TIME TO DO ORDINARY INTEGRALS=      0.00
 TIME TO DO      ECP INTEGRALS=      0.01
 TIME TO DO   DIPOLE INTEGRALS=      0.01
 ...... END OF ONE-ELECTRON INTEGRALS ......
 CPU     0: STEP CPU TIME=     0.02 TOTAL CPU TIME=        0.1 (    0.0 MIN)
 TOTAL WALL CLOCK TIME=        0.1 SECONDS, CPU UTILIZATION IS  50.00%

          -------------
          GUESS OPTIONS
          -------------
          GUESS =MOREAD            NORB  =      57          NORDER=       0
          MIX   =       F          PRTMO =       F          PUNMO =       F
          TOLZ  = 1.0E-08          TOLE  = 1.0E-05
          SYMDEN=       F          PURIFY=       F

 INITIAL GUESS ORBITALS GENERATED BY MOREAD   ROUTINE.

 STATISTICS FOR GENERATION OF SYMMETRY ORBITAL -Q- MATRIX
 NUMBER OF CARTESIAN ATOMIC ORBITALS=         64
 NUMBER OF SPHERICAL CONTAMINANTS DROPPED=     7
 NUMBER OF LINEARLY DEPENDENT MOS DROPPED=     0
 TOTAL NUMBER OF MOS IN VARIATION SPACE=      57

 SYMMETRIES FOR INITIAL GUESS ORBITALS FOLLOW.   BOTH SET(S).
     4 ORBITALS ARE OCCUPIED (    0 CORE ORBITALS).
     1=A1       2=B2       3=A1       4=B1       5=A1       6=B2       7=A1  
     8=B2       9=A1      10=B2      11=B1      12=A1      13=A2      14=B2  
    15=A1      16=B2      17=B1      18=A1      19=B2      20=A1      21=B2  
    22=A1      23=A2      24=B1      25=A1      26=B2      27=B1      28=A2  
    29=B2      30=A1      31=A1      32=B1      33=A1      34=B2      35=A2  
    36=B1      37=A1      38=A2      39=B2      40=B1      41=B2      42=A1  
    43=A1      44=B2      45=B1      46=A1      47=B2      48=A1      49=B1  
    50=A2      51=B2      52=B1      53=A2      54=A1      55=A1      56=B2  
    57=A1  
 ...... END OF INITIAL ORBITAL SELECTION ......
 CPU     0: STEP CPU TIME=     0.00 TOTAL CPU TIME=        0.1 (    0.0 MIN)
 TOTAL WALL CLOCK TIME=        0.2 SECONDS, CPU UTILIZATION IS  43.75%

                    ----------------------
                    AO INTEGRAL TECHNOLOGY
                    ----------------------
     S,P,L SHELL ROTATED AXIS INTEGRALS, REPROGRAMMED BY
        KAZUYA ISHIMURA (IMS) AND JOSE SIERRA (SYNSTAR).
     S,P,D,L SHELL ROTATED AXIS INTEGRALS PROGRAMMED BY
        KAZUYA ISHIMURA (INSTITUTE FOR MOLECULAR SCIENCE).
     S,P,D,F,G SHELL TO TOTAL QUARTET ANGULAR MOMENTUM SUM 5,
        ERIC PROGRAM BY GRAHAM FLETCHER (ELORET AND NASA ADVANCED
        SUPERCOMPUTING DIVISION, AMES RESEARCH CENTER).
     S,P,D,F,G,L SHELL GENERAL RYS QUADRATURE PROGRAMMED BY
        MICHEL DUPUIS (PACIFIC NORTHWEST NATIONAL LABORATORY).

          --------------------
          2 ELECTRON INTEGRALS
          --------------------

 THE -PK- OPTION IS OFF, THE INTEGRALS ARE NOT IN SUPERMATRIX FORM.
 STORING   15000 INTEGRALS/RECORD ON DISK, USING 12 BYTES/INTEGRAL.
 TWO ELECTRON INTEGRAL EVALUATION REQUIRES   99331 WORDS OF MEMORY.
 II,JST,KST,LST =  1  1  1  1 NREC =         1 INTLOC =    1
 II,JST,KST,LST =  2  1  1  1 NREC =         1 INTLOC =    2
 II,JST,KST,LST =  3  1  1  1 NREC =         1 INTLOC =    7
 II,JST,KST,LST =  4  1  1  1 NREC =         1 INTLOC =   22
 II,JST,KST,LST =  5  1  1  1 NREC =         1 INTLOC =   67
 II,JST,KST,LST =  6  1  1  1 NREC =         1 INTLOC =  214
 II,JST,KST,LST =  7  1  1  1 NREC =         1 INTLOC =  571
 II,JST,KST,LST =  8  1  1  1 NREC =         1 INTLOC = 2257
 II,JST,KST,LST =  9  1  1  1 NREC =         1 INTLOC = 6628
 II,JST,KST,LST = 10  1  1  1 NREC =         2 INTLOC = 9017
 II,JST,KST,LST = 11  1  1  1 NREC =         2 INTLOC = 9017
 II,JST,KST,LST = 12  1  1  1 NREC =         2 INTLOC = 9017
 II,JST,KST,LST = 13  1  1  1 NREC =         2 INTLOC = 9017
 II,JST,KST,LST = 14  1  1  1 NREC =         2 INTLOC = 9017
 II,JST,KST,LST = 15  1  1  1 NREC =         2 INTLOC = 9017
 II,JST,KST,LST = 16  1  1  1 NREC =         2 INTLOC = 9017
 II,JST,KST,LST = 17  1  1  1 NREC =         3 INTLOC = 6001
 II,JST,KST,LST = 18  1  1  1 NREC =         4 INTLOC = 5314
 II,JST,KST,LST = 19  1  1  1 NREC =         5 INTLOC = 7274
 II,JST,KST,LST = 20  1  1  1 NREC =         9 INTLOC =12231
 II,JST,KST,LST = 21  1  1  1 NREC =        16 INTLOC = 1029
 TOTAL NUMBER OF NONZERO TWO-ELECTRON INTEGRALS =              531281
         36 INTEGRAL RECORDS WERE STORED ON DISK FILE  8.
  ...... END OF TWO-ELECTRON INTEGRALS .....
 STEP CPU TIME =     0.19 TOTAL CPU TIME =        0.3 (    0.0 MIN)
 TOTAL WALL CLOCK TIME=        0.4 SECONDS, CPU UTILIZATION IS  68.42%

          -----------------
          MCSCF CALCULATION
          -----------------

 ----- NUCLEAR ENERGY ----- =         6.9807632466

     --------------------------------------------------
          AMES LABORATORY DETERMINANTAL FULL CI
     PROGRAM WRITTEN BY JOE IVANIC AND KLAUS RUEDENBERG
     --------------------------------------------------

 THE POINT GROUP                  =   C2V     
 THE STATE SYMMETRY               =   A1      
 NUMBER OF CORE ORBITALS          =    0
 NUMBER OF ACTIVE ORBITALS        =    8
 NUMBER OF ALPHA ELECTRONS        =    4 (   4 ACTIVE)
 NUMBER OF BETA ELECTRONS         =    4 (   4 ACTIVE)
 NUMBER OF OCCUPIED ORBITALS      =    8
 NUMBER OF CI STATES REQUESTED    =    1
 NUMBER OF CI STARTING VECTORS    =    1
 MAX. NO. OF CI EXPANSION VECTORS =   10
 SIZE OF INITIAL CI GUESS MATRIX  =  300
 MAX. NO. OF CI ITERS/STATE       =  100
 CI DIAGONALIZATION CRITERION     = 1.00E-05
 PURE SPIN STATE AVERAGED 1E- AND 2E- DENSITY MATRIX OPTION=.T.
 STATE=   1 DM2 WEIGHT=   1.00000

 CORRELATION ENERGY ANALYSIS      =    F

 SYMMETRIES FOR THE   0 CORE,   8 ACTIVE ARE

   ACTIVE= A1    B2    A1    B1    A1    B2    A1    B2  
 OPENING FILE DAFL30 WITH      81 LOGICAL RECORDS OF    4096 WORDS
 WITH A MAXIMUM OF         162 PHYSICAL RECORDS OF    2048 WORDS

          ------------------------------
          CASSCF INTEGRAL TRANSFORMATION
          ------------------------------
 AO INTEGRALS WILL BE READ IN FROM DISK...

 NUMBER OF CORE MOLECULAR ORBITALS     =     0
 NUMBER OF OCCUPIED MOLECULAR ORBITALS =     8
 TOTAL NUMBER OF MOLECULAR ORBITALS    =    57
 TOTAL NUMBER OF ATOMIC ORBITALS       =    57
 MEMORY WHICH WOULD BE NEEDED FOR SINGLE PASS TRANSFORMATION =    1210256

 ----- CHOOSING THREE STEPS TRANSFORMATION -----
 NUMBER OF WORDS USED      =     216536
 NUMBER OF WORDS AVAILABLE =  150000000
 NUMBER OF PASSES          =         16
 PASS #   1 COMPLETED IN         0.0 SECONDS.
 PASS #   2 IS ASSIGNED TO A DIFFERENT PROCESSOR.
 PASS #   3 IS ASSIGNED TO A DIFFERENT PROCESSOR.
 PASS #   4 IS ASSIGNED TO A DIFFERENT PROCESSOR.
 PASS #   5 IS ASSIGNED TO A DIFFERENT PROCESSOR.
 PASS #   6 IS ASSIGNED TO A DIFFERENT PROCESSOR.
 PASS #   7 IS ASSIGNED TO A DIFFERENT PROCESSOR.
 PASS #   8 IS ASSIGNED TO A DIFFERENT PROCESSOR.
 PASS #   9 IS ASSIGNED TO A DIFFERENT PROCESSOR.
 PASS #  10 IS ASSIGNED TO A DIFFERENT PROCESSOR.
 PASS #  11 IS ASSIGNED TO A DIFFERENT PROCESSOR.
 PASS #  12 IS ASSIGNED TO A DIFFERENT PROCESSOR.
 PASS #  13 IS ASSIGNED TO A DIFFERENT PROCESSOR.
 PASS #  14 IS ASSIGNED TO A DIFFERENT PROCESSOR.
 PASS #  15 IS ASSIGNED TO A DIFFERENT PROCESSOR.
 PASS #  16 IS ASSIGNED TO A DIFFERENT PROCESSOR.

 ----- NUCLEAR REPULSION ENERGY =      6.98076325
 ----- FROZEN CORE ENERGY       =      0.00000000

 ... SYMMETRY ...           CPU =    0.00
 ... (PQ|RS) -> (PQ|KL) ... CPU =    0.02
 ... (PQ|KL) -> (IJ|KL) ... CPU =    0.00

 NUMBER OF (PQ|KL) INTEGRALS WRITTEN      41509
 NUMBER OF (IJ|KL) INTEGRALS WRITTEN        247
 ..... END OF CAS INTEGRAL TRANSFORMATION .....
 CPU     0: STEP CPU TIME=     0.03 TOTAL CPU TIME=        0.3 (    0.0 MIN)
 TOTAL WALL CLOCK TIME=        0.5 SECONDS, CPU UTILIZATION IS  56.86%

     --------------------------------------------------
          AMES LABORATORY DETERMINANTAL FULL CI
     PROGRAM WRITTEN BY JOE IVANIC AND KLAUS RUEDENBERG
     --------------------------------------------------

 THE NUMBER OF DETERMINANTS HAVING SPACE SYMMETRY A1 
 IN POINT GROUP C2V  WITH SZ=  0.0 IS           1234
 THE DETERMINANT FULL CI REQUIRES          204393 WORDS
 INITIAL CI VECTOR GUESS TIME  :          0.1
 INITIAL FULL CI ITERATION TIME:          0.0

 ITERATION      ENERGY           GRADIENT
     0      -17.0476762194     0.14876864
     1      -17.0515735974     0.01826710
     2      -17.0516286867     0.00634926
     3      -17.0516363645     0.00080512
     4      -17.0516364981     0.00013962
     5      -17.0516365028     0.00003328
     6      -17.0516365031     0.00000707

 CONVERGED STATE    1 ENERGY=      -17.0516365031 IN    6 ITERS

 ALL STATES CONVERGED.

 CI EIGENVECTORS WILL BE LABELED IN GROUP=C2V     
 PRINTING CI COEFFICIENTS LARGER THAN  0.001000

 STATE   1  ENERGY=       -17.0516365031  S=  0.00  SZ=  0.00  SPACE SYM=A1  

  ALPHA   |  BETA    | COEFFICIENT
----------|----------|------------
 11110000 | 11110000 |   0.9843777
 10110100 | 10110100 |  -0.0689318
 11010010 | 11010010 |  -0.0420963
 11011000 | 11011000 |  -0.0405394
 11011000 | 10110100 |   0.0399229
 10110100 | 11011000 |   0.0399229
 01111000 | 01111000 |  -0.0334863
 11011000 | 01111000 |  -0.0316491
 01111000 | 11011000 |  -0.0316491
 10110100 | 01111000 |   0.0300371
 01111000 | 10110100 |   0.0300371
 11010100 | 11010100 |  -0.0295569
 10111000 | 10111000 |  -0.0288490
 11010010 | 10110100 |   0.0266972
 10110100 | 11010010 |   0.0266972
 11110000 | 10010110 |  -0.0225183
 10010110 | 11110000 |  -0.0225183
 11011000 | 11010010 |  -0.0213896
 11010010 | 11011000 |  -0.0213896
 11010100 | 10111000 |   0.0209754
 10111000 | 11010100 |   0.0209754
 11010010 | 01110010 |   0.0209372
 01110010 | 11010010 |   0.0209372
 10110100 | 01110010 |  -0.0200172
 01110010 | 10110100 |  -0.0200172
 10111000 | 01110100 |   0.0200083
 01110100 | 10111000 |   0.0200083
 01110100 | 01110100 |  -0.0191164
 11110000 | 10011100 |   0.0189477
 10011100 | 11110000 |   0.0189477
 10110001 | 10110001 |  -0.0179745
 11010001 | 11010001 |  -0.0160822
 11010100 | 11010001 |   0.0155646
 11010001 | 11010100 |   0.0155646
 10110001 | 01111000 |   0.0152717
 01111000 | 10110001 |   0.0152717
 11110000 | 01011010 |   0.0152530
 01011010 | 11110000 |   0.0152530
 11101000 | 11101000 |  -0.0147165
 01110010 | 01110010 |  -0.0120038
 11011000 | 01110010 |   0.0118134
 01110010 | 11011000 |   0.0118134
 10110010 | 01110100 |  -0.0108612
 01110100 | 10110010 |  -0.0108612
 01110001 | 01110001 |  -0.0108289
 11110000 | 00111001 |  -0.0104955
 00111001 | 11110000 |  -0.0104955
 11100010 | 11100010 |  -0.0104437
 11110000 | 00111100 |  -0.0100291
 00111100 | 11110000 |  -0.0100291
 11010001 | 01110100 |  -0.0094633
 01110100 | 11010001 |  -0.0094633
 10111000 | 10110010 |   0.0093756
 10110010 | 10111000 |   0.0093756
 11110000 | 00110110 |  -0.0091561
 00110110 | 11110000 |  -0.0091561
 10110010 | 10110010 |  -0.0083616
 01111000 | 01110010 |   0.0079676
 01110010 | 01111000 |   0.0079676
 11110000 | 01010101 |   0.0069118
 01010101 | 11110000 |   0.0069118
 10011100 | 10011100 |   0.0067588
 11100100 | 11100100 |  -0.0066305
 11110000 | 10011001 |   0.0058538
 10011001 | 11110000 |   0.0058538
 11101000 | 11100010 |   0.0054331
 11100010 | 11101000 |   0.0054331
 11010100 | 01110100 |   0.0050379
 01110100 | 11010100 |   0.0050379
 10010110 | 10010110 |   0.0049744
 10111000 | 01110001 |   0.0047762
 01110001 | 10111000 |   0.0047762
 00111100 | 00111100 |   0.0045567
 11011000 | 10110001 |   0.0043060
 10110001 | 11011000 |   0.0043060
 01011010 | 01011010 |   0.0042078
 10011100 | 00111100 |  -0.0041956
 00111100 | 10011100 |  -0.0041956
 11010100 | 10110010 |   0.0041791
 10110010 | 11010100 |   0.0041791
 10011100 | 01011010 |   0.0034701
 01011010 | 10011100 |   0.0034701
 11010010 | 01111000 |  -0.0034395
 01111000 | 11010010 |  -0.0034395
 10010110 | 01011010 |  -0.0033224
 01011010 | 10010110 |  -0.0033224
 10011100 | 10010110 |  -0.0032367
 10010110 | 10011100 |  -0.0032367
 10110100 | 10110001 |  -0.0032003
 10110001 | 10110100 |  -0.0032003
 10110100 | 00011110 |  -0.0031716
 00011110 | 10110100 |  -0.0031716
 10110001 | 01110010 |  -0.0026141
 01110010 | 10110001 |  -0.0026141
 10010110 | 00110110 |   0.0025648
 00110110 | 10010110 |   0.0025648
 11010100 | 01110001 |  -0.0025515
 01110001 | 11010100 |  -0.0025515
 11011000 | 00011110 |   0.0024855
 00011110 | 11011000 |   0.0024855
 11100001 | 11100001 |  -0.0024527
 01011010 | 00111100 |  -0.0022947
 00111100 | 01011010 |  -0.0022947
 01011100 | 01011100 |   0.0022092
 10011010 | 10011010 |   0.0021362
 11110000 | 00110011 |   0.0018942
 00110011 | 11110000 |   0.0018942
 10011100 | 00110110 |  -0.0018915
 00110110 | 10011100 |  -0.0018915
 01110100 | 01110001 |  -0.0018902
 01110001 | 01110100 |  -0.0018902
 01111000 | 00011110 |   0.0018374
 00011110 | 01111000 |   0.0018374
 11110000 | 10110100 |   0.0018290
 10110100 | 11110000 |   0.0018290
 01011010 | 00110110 |  -0.0018194
 00110110 | 01011010 |  -0.0018194
 10010101 | 10010101 |   0.0017722
 00111100 | 00110110 |   0.0017257
 00110110 | 00111100 |   0.0017257
 11010010 | 00011110 |   0.0017138
 00011110 | 11010010 |   0.0017138
 00110110 | 00110110 |   0.0017002
 10011010 | 01010110 |  -0.0016086
 01010110 | 10011010 |  -0.0016086
 11110000 | 10110001 |   0.0015712
 10110001 | 11110000 |   0.0015712
 11010001 | 10111000 |  -0.0015478
 10111000 | 11010001 |  -0.0015478
 10010101 | 01011100 |   0.0014646
 01011100 | 10010101 |   0.0014646
 11110000 | 01110010 |  -0.0014224
 01110010 | 11110000 |  -0.0014224
 11010010 | 10110001 |   0.0013809
 10110001 | 11010010 |   0.0013809
 00111001 | 00111001 |   0.0013685
 11110000 | 01111000 |  -0.0013540
 01111000 | 11110000 |  -0.0013540
 10110100 | 10011100 |  -0.0013443
 10011100 | 10110100 |  -0.0013443
 11110000 | 10010011 |   0.0013022
 10010011 | 11110000 |   0.0013022
 10010110 | 00111100 |   0.0012800
 00111100 | 10010110 |   0.0012800
 10011001 | 10011001 |   0.0012763
 11001010 | 11001010 |   0.0012551
 10101100 | 10101100 |   0.0012513
 10110100 | 10010110 |   0.0012323
 10010110 | 10110100 |   0.0012323
 10011001 | 00111100 |  -0.0011286
 00111100 | 10011001 |  -0.0011286
 00110101 | 00110101 |   0.0011151
 11010001 | 01110001 |  -0.0011061
 01110001 | 11010001 |  -0.0011061
 11110000 | 11011000 |  -0.0010812
 11011000 | 11110000 |  -0.0010812
 01110010 | 00011110 |  -0.0010806
 00011110 | 01110010 |  -0.0010806
 01010110 | 01010110 |   0.0010281
 11011000 | 10011100 |   0.0010060
 10011100 | 11011000 |   0.0010060
 ..... DONE WITH DETERMINANT CI COMPUTATION .....
 CPU     0: STEP CPU TIME=     0.06 TOTAL CPU TIME=        0.3 (    0.0 MIN)
 TOTAL WALL CLOCK TIME=        0.8 SECONDS, CPU UTILIZATION IS  45.45%

     --------------------------------------------------
      ONE AND TWO PARTICLE DENSITY MATRIX COMPUTATION
     PROGRAM WRITTEN BY JOE IVANIC AND KLAUS RUEDENBERG
     --------------------------------------------------

      32160 WORDS WILL BE USED TO FORM THE DENSITIES
 THE DENSITIES ARE STATE AVERAGED OVER   1 ROOT(S)
 STATE=   1   ENERGY=      -17.0516365031   WEIGHT= 1.00000   S=  0.00
 SIEVING THE A1   SYMMETRY NONZERO DENSITY ELEMENTS IN GROUP C2V     
        247 NONZERO DM2 ELEMENTS WRITTEN IN       1 RECORDS TO FILE 15
 ..... DONE WITH 1 AND 2 PARTICLE DENSITY MATRIX .....
 CPU     0: STEP CPU TIME=     0.01 TOTAL CPU TIME=        0.4 (    0.0 MIN)
 TOTAL WALL CLOCK TIME=        0.8 SECONDS, CPU UTILIZATION IS  45.00%

          --------------------------------------
          APPROXIMATE SECOND-ORDER MCSCF PROGRAM
          --------------------------------------
          PROGRAM WRITTEN BY G.CHABAN, A.MARQUEZ, AND M.DUPUIS

  NUMBER OF WORDS NEEDED     =     129676
  NUMBER AVAILABLE           =  150000000

 ----- GAMMA(IJKL)*(PQ|KL) PRODUCTS ----- CPU TIME =      0.010
 ----- ORBITAL SYMMETRY             ----- CPU TIME =      0.000
 ----- FOCK OPERATORS CONSTRUCTION  ----- CPU TIME =      0.010
     MICIT =   1 ASYMM =    0.000008 ROTMAX =    0.000029
 ----- EFFECTIVE FOCK + ROTATE ORBS ----- CPU TIME =      0.000
 ..... DONE WITH CASSCF ORBITAL UPDATE .....
 CPU     0: STEP CPU TIME=     0.02 TOTAL CPU TIME=        0.4 (    0.0 MIN)
 TOTAL WALL CLOCK TIME=        0.9 SECONDS, CPU UTILIZATION IS  44.19%

 ITER     TOTAL ENERGY      DEL(E)  LAGRANGIAN ASYMMETRY   SQCDF  MICIT   DAMP
   1      -17.051636503 -0.051636503  0.000008   41    6 2.871E-05  1   0.0000
       ----------START APPROXIMATE SECOND ORDER MCSCF----------
   2      -17.051636505 -0.000000002  0.000007   41    6 4.403E-07  1   0.0000

          --------------------
          LAGRANGIAN CONVERGED
          --------------------

 FINAL MCSCF ENERGY IS      -17.0516365048 AFTER   2 ITERATIONS

 -MCCI- BASED ON OPTIMIZED ORBITALS
 ----------------------------------

 PLEASE NOTE: IF THE ACTIVE ORBITALS ARE CANONICALIZED BELOW,
 THE FOLLOWING CI EXPANSION COEFFICIENTS AND THE DENSITY DO NOT
 CORRESPOND TO THE PRINTED ORBITALS.  THE PRINTED EXPANSIONS MATCH
 THE ORBITALS USED DURING THE LAST ITERATION.  IF YOU WISH TO SEE
 CI EXPANSIONS BASED ON THE CANONICAL (OR NATURAL) ORBITALS, YOU
 MUST RUN A CI CALCULATION WITH THAT ORBITAL CHOICE READ IN $VEC.

 CI EIGENVECTORS WILL BE LABELED IN GROUP=C2V     
 PRINTING CI COEFFICIENTS LARGER THAN  0.001000

 STATE   1  ENERGY=       -17.0516365048  S=  0.00  SZ=  0.00  SPACE SYM=A1  

  ALPHA   |  BETA    | COEFFICIENT
----------|----------|------------
 11110000 | 11110000 |   0.9843778
 10110100 | 10110100 |  -0.0689325
 11010010 | 11010010 |  -0.0420964
 11011000 | 11011000 |  -0.0405400
 11011000 | 10110100 |   0.0399228
 10110100 | 11011000 |   0.0399228
 01111000 | 01111000 |  -0.0334867
 11011000 | 01111000 |  -0.0316490
 01111000 | 11011000 |  -0.0316490
 10110100 | 01111000 |   0.0300369
 01111000 | 10110100 |   0.0300369
 11010100 | 11010100 |  -0.0295567
 10111000 | 10111000 |  -0.0288485
 11010010 | 10110100 |   0.0266975
 10110100 | 11010010 |   0.0266975
 11110000 | 10010110 |  -0.0225187
 10010110 | 11110000 |  -0.0225187
 11011000 | 11010010 |  -0.0213899
 11010010 | 11011000 |  -0.0213899
 11010100 | 10111000 |   0.0209751
 10111000 | 11010100 |   0.0209751
 11010010 | 01110010 |   0.0209370
 01110010 | 11010010 |   0.0209370
 10110100 | 01110010 |  -0.0200171
 01110010 | 10110100 |  -0.0200171
 10111000 | 01110100 |   0.0200081
 01110100 | 10111000 |   0.0200081
 01110100 | 01110100 |  -0.0191163
 11110000 | 10011100 |   0.0189478
 10011100 | 11110000 |   0.0189478
 10110001 | 10110001 |  -0.0179740
 11010001 | 11010001 |  -0.0160817
 11010100 | 11010001 |   0.0155639
 11010001 | 11010100 |   0.0155639
 10110001 | 01111000 |   0.0152717
 01111000 | 10110001 |   0.0152717
 11110000 | 01011010 |   0.0152528
 01011010 | 11110000 |   0.0152528
 11101000 | 11101000 |  -0.0147163
 01110010 | 01110010 |  -0.0120039
 11011000 | 01110010 |   0.0118134
 01110010 | 11011000 |   0.0118134
 10110010 | 01110100 |  -0.0108611
 01110100 | 10110010 |  -0.0108611
 01110001 | 01110001 |  -0.0108289
 11110000 | 00111001 |  -0.0104953
 00111001 | 11110000 |  -0.0104953
 11100010 | 11100010 |  -0.0104436
 11110000 | 00111100 |  -0.0100288
 00111100 | 11110000 |  -0.0100288
 11010001 | 01110100 |  -0.0094635
 01110100 | 11010001 |  -0.0094635
 10111000 | 10110010 |   0.0093755
 10110010 | 10111000 |   0.0093755
 11110000 | 00110110 |  -0.0091561
 00110110 | 11110000 |  -0.0091561
 10110010 | 10110010 |  -0.0083617
 01111000 | 01110010 |   0.0079677
 01110010 | 01111000 |   0.0079677
 11110000 | 01010101 |   0.0069118
 01010101 | 11110000 |   0.0069118
 10011100 | 10011100 |   0.0067588
 11100100 | 11100100 |  -0.0066308
 11110000 | 10011001 |   0.0058533
 10011001 | 11110000 |   0.0058533
 11101000 | 11100010 |   0.0054329
 11100010 | 11101000 |   0.0054329
 11010100 | 01110100 |   0.0050380
 01110100 | 11010100 |   0.0050380
 10010110 | 10010110 |   0.0049744
 10111000 | 01110001 |   0.0047764
 01110001 | 10111000 |   0.0047764
 00111100 | 00111100 |   0.0045567
 11011000 | 10110001 |   0.0043062
 10110001 | 11011000 |   0.0043062
 01011010 | 01011010 |   0.0042078
 10011100 | 00111100 |  -0.0041957
 00111100 | 10011100 |  -0.0041957
 11010100 | 10110010 |   0.0041789
 10110010 | 11010100 |   0.0041789
 10011100 | 01011010 |   0.0034701
 01011010 | 10011100 |   0.0034701
 11010010 | 01111000 |  -0.0034394
 01111000 | 11010010 |  -0.0034394
 10010110 | 01011010 |  -0.0033224
 01011010 | 10010110 |  -0.0033224
 10011100 | 10010110 |  -0.0032368
 10010110 | 10011100 |  -0.0032368
 10110100 | 10110001 |  -0.0032008
 10110001 | 10110100 |  -0.0032008
 10110100 | 00011110 |  -0.0031716
 00011110 | 10110100 |  -0.0031716
 10110001 | 01110010 |  -0.0026139
 01110010 | 10110001 |  -0.0026139
 10010110 | 00110110 |   0.0025647
 00110110 | 10010110 |   0.0025647
 11010100 | 01110001 |  -0.0025517
 01110001 | 11010100 |  -0.0025517
 11011000 | 00011110 |   0.0024854
 00011110 | 11011000 |   0.0024854
 11100001 | 11100001 |  -0.0024527
 01011010 | 00111100 |  -0.0022947
 00111100 | 01011010 |  -0.0022947
 01011100 | 01011100 |   0.0022091
 10011010 | 10011010 |   0.0021361
 11110000 | 00110011 |   0.0018942
 00110011 | 11110000 |   0.0018942
 10011100 | 00110110 |  -0.0018916
 00110110 | 10011100 |  -0.0018916
 01110100 | 01110001 |  -0.0018901
 01110001 | 01110100 |  -0.0018901
 01111000 | 00011110 |   0.0018374
 00011110 | 01111000 |   0.0018374
 11110000 | 10110100 |   0.0018295
 10110100 | 11110000 |   0.0018295
 01011010 | 00110110 |  -0.0018194
 00110110 | 01011010 |  -0.0018194
 10010101 | 10010101 |   0.0017722
 00111100 | 00110110 |   0.0017257
 00110110 | 00111100 |   0.0017257
 11010010 | 00011110 |   0.0017138
 00011110 | 11010010 |   0.0017138
 00110110 | 00110110 |   0.0017001
 10011010 | 01010110 |  -0.0016086
 01010110 | 10011010 |  -0.0016086
 11110000 | 10110001 |   0.0015717
 10110001 | 11110000 |   0.0015717
 11010001 | 10111000 |  -0.0015471
 10111000 | 11010001 |  -0.0015471
 10010101 | 01011100 |   0.0014645
 01011100 | 10010101 |   0.0014645
 11110000 | 01110010 |  -0.0014224
 01110010 | 11110000 |  -0.0014224
 11010010 | 10110001 |   0.0013804
 10110001 | 11010010 |   0.0013804
 00111001 | 00111001 |   0.0013684
 11110000 | 01111000 |  -0.0013536
 01111000 | 11110000 |  -0.0013536
 10110100 | 10011100 |  -0.0013444
 10011100 | 10110100 |  -0.0013444
 11110000 | 10010011 |   0.0013017
 10010011 | 11110000 |   0.0013017
 10010110 | 00111100 |   0.0012800
 00111100 | 10010110 |   0.0012800
 10011001 | 10011001 |   0.0012762
 11001010 | 11001010 |   0.0012551
 10101100 | 10101100 |   0.0012512
 10110100 | 10010110 |   0.0012324
 10010110 | 10110100 |   0.0012324
 10011001 | 00111100 |  -0.0011286
 00111100 | 10011001 |  -0.0011286
 00110101 | 00110101 |   0.0011151
 11010001 | 01110001 |  -0.0011060
 01110001 | 11010001 |  -0.0011060
 11110000 | 11011000 |  -0.0010810
 11011000 | 11110000 |  -0.0010810
 01110010 | 00011110 |  -0.0010806
 00011110 | 01110010 |  -0.0010806
 01010110 | 01010110 |   0.0010279
 11011000 | 10011100 |   0.0010061
 10011100 | 11011000 |   0.0010061

 DENSITY MATRIX OVER ACTIVE MO-S

             1           2           3           4           5

    1    1.9870916
    2    0.0000000   1.9748881
    3   -0.0037801   0.0000000   1.9761475
    4    0.0000000   0.0000000   0.0000000   1.9991032
    5    0.0022260   0.0000000   0.0015041   0.0000000   0.0226810
    6    0.0000000   0.0028137   0.0000000   0.0000000   0.0000000
    7    0.0029096   0.0000000  -0.0001503   0.0000000   0.0029773
    8    0.0000000   0.0028731   0.0000000   0.0000000   0.0000000

             6           7           8

    6    0.0248480
    7    0.0000000   0.0120816
    8    0.0013435   0.0000000   0.0031590

 FORMING THE "STANDARD FOCK OPERATOR" USING INTEGRALS FROM DISK...
     0 FILLED,    8 ACTIVE, AND   49 VIRTUAL ORBITALS  WILL BE CANONICALIZED

          ----------------------
          MCSCF NATURAL ORBITALS
          ----------------------

                      1          2          3          4          5
                    1.9991     1.9883     1.9750     1.9749     0.0249
                     B1         A1         A1         B2         B2  
    1  O  1  S    0.000000   0.909440  -0.038651   0.000000   0.000000
    2  O  1  S    0.000000  -0.005199  -0.007883   0.000000   0.000000
    3  O  1  S    0.000000  -0.074305  -0.110082   0.000000   0.000000
    4  O  1  X    0.935393   0.000000   0.000000   0.000000   0.000000
    5  O  1  Y    0.000000   0.000000   0.000000   0.762218   1.455614
    6  O  1  Z    0.000000  -0.121056   0.831441   0.000000   0.000000
    7  O  1  X    0.008743   0.000000   0.000000   0.000000   0.000000
    8  O  1  Y    0.000000   0.000000   0.000000  -0.122531  -0.610808
    9  O  1  Z    0.000000  -0.039576  -0.028438   0.000000   0.000000
   10  O  1  X    0.007214   0.000000   0.000000   0.000000   0.000000
   11  O  1  Y    0.000000   0.000000   0.000000  -0.042497  -0.384949
   12  O  1  Z    0.000000  -0.016037  -0.024618   0.000000   0.000000
   13  O  1 XX    0.000000   0.004232  -0.014249   0.000000   0.000000
   14  O  1 YY    0.000000   0.001885  -0.001408   0.000000   0.000000
   15  O  1 ZZ    0.000000  -0.006117   0.015657   0.000000   0.000000
   16  O  1 XY    0.000000   0.000000   0.000000   0.000000   0.000000
   17  O  1 XZ    0.016661   0.000000   0.000000   0.000000   0.000000
   18  O  1 YZ    0.000000   0.000000   0.000000   0.017848  -0.069551
   19  O  1 XX    0.000000  -0.002581  -0.006122   0.000000   0.000000
   20  O  1 YY    0.000000   0.002491   0.000965   0.000000   0.000000
   21  O  1 ZZ    0.000000   0.000090   0.005157   0.000000   0.000000
   22  O  1 XY    0.000000   0.000000   0.000000   0.000000   0.000000
   23  O  1 XZ    0.005001   0.000000   0.000000   0.000000   0.000000
   24  O  1 YZ    0.000000   0.000000   0.000000   0.012748  -0.013889
   25  O  1 XXX  -0.003577   0.000000   0.000000   0.000000   0.000000
   26  O  1 YYY   0.000000   0.000000   0.000000   0.001719   0.000501
   27  O  1 ZZZ   0.000000  -0.001292  -0.001410   0.000000   0.000000
   28  O  1 XXY   0.000000   0.000000   0.000000  -0.005025  -0.012959
   29  O  1 XXZ   0.000000  -0.000582  -0.004553   0.000000   0.000000
   30  O  1 YYX   0.003299   0.000000   0.000000   0.000000   0.000000
   31  O  1 YYZ   0.000000   0.002316   0.006445   0.000000   0.000000
   32  O  1 ZZX   0.001500   0.000000   0.000000   0.000000   0.000000
   33  O  1 ZZY   0.000000   0.000000   0.000000   0.002718   0.012287
   34  O  1 XYZ   0.000000   0.000000   0.000000   0.000000   0.000000
   35  H  2  S    0.000000   0.100514   0.195193  -0.257871   0.418874
   36  H  2  S    0.000000   0.024799   0.068722  -0.195297   0.156933
   37  H  2  S    0.000000   0.001124  -0.006422   0.010124   0.040888
   38  H  2  X    0.025246   0.000000   0.000000   0.000000   0.000000
   39  H  2  Y    0.000000   0.019647   0.024977  -0.018948  -0.027685
   40  H  2  Z    0.000000  -0.018060   0.004577   0.026640   0.012961
   41  H  2  X    0.031413   0.000000   0.000000   0.000000   0.000000
   42  H  2  Y    0.000000   0.012160   0.001144  -0.029830  -0.002011
   43  H  2  Z    0.000000  -0.017189   0.026725   0.015062   0.021581
   44  H  2 XX    0.000000  -0.002890  -0.002716   0.004642   0.014655
   45  H  2 YY    0.000000   0.002733   0.005882  -0.001729  -0.015574
   46  H  2 ZZ    0.000000   0.000157  -0.003167  -0.002913   0.000919
   47  H  2 XY    0.005238   0.000000   0.000000   0.000000   0.000000
   48  H  2 XZ   -0.003454   0.000000   0.000000   0.000000   0.000000
   49  H  2 YZ    0.000000  -0.005371  -0.000488   0.007689   0.025401
   50  H  3  S    0.000000   0.100514   0.195193   0.257871  -0.418874
   51  H  3  S    0.000000   0.024799   0.068722   0.195297  -0.156933
   52  H  3  S    0.000000   0.001124  -0.006422  -0.010124  -0.040888
   53  H  3  X    0.025246   0.000000   0.000000   0.000000   0.000000
   54  H  3  Y    0.000000  -0.019647  -0.024977  -0.018948  -0.027685
   55  H  3  Z    0.000000  -0.018060   0.004577  -0.026640  -0.012961
   56  H  3  X    0.031413   0.000000   0.000000   0.000000   0.000000
   57  H  3  Y    0.000000  -0.012160  -0.001144  -0.029830  -0.002011
   58  H  3  Z    0.000000  -0.017189   0.026725  -0.015062  -0.021581
   59  H  3 XX    0.000000  -0.002890  -0.002716  -0.004642  -0.014655
   60  H  3 YY    0.000000   0.002733   0.005882   0.001729   0.015574
   61  H  3 ZZ    0.000000   0.000157  -0.003167   0.002913  -0.000919
   62  H  3 XY   -0.005238   0.000000   0.000000   0.000000   0.000000
   63  H  3 XZ   -0.003454   0.000000   0.000000   0.000000   0.000000
   64  H  3 YZ    0.000000   0.005371   0.000488   0.007689   0.025401

                      6          7          8
                    0.0235     0.0113     0.0031
                     A1         A1         B2  
    1  O  1  S    0.431123  -1.304760   0.000000
    2  O  1  S    0.057367  -0.425957   0.000000
    3  O  1  S   -0.134500   1.434262   0.000000
    4  O  1  X    0.000000   0.000000   0.000000
    5  O  1  Y    0.000000   0.000000  -0.542130
    6  O  1  Z    1.438010   0.646620   0.000000
    7  O  1  X    0.000000   0.000000   0.000000
    8  O  1  Y    0.000000   0.000000   0.439045
    9  O  1  Z   -0.743193  -0.543224   0.000000
   10  O  1  X    0.000000   0.000000   0.000000
   11  O  1  Y    0.000000   0.000000   0.549931
   12  O  1  Z   -0.416744  -0.420519   0.000000
   13  O  1 XX    0.011707   0.045920   0.000000
   14  O  1 YY   -0.023005   0.003047   0.000000
   15  O  1 ZZ    0.011298  -0.048967   0.000000
   16  O  1 XY    0.000000   0.000000   0.000000
   17  O  1 XZ    0.000000   0.000000   0.000000
   18  O  1 YZ    0.000000   0.000000  -0.523148
   19  O  1 XX   -0.008565   0.051664   0.000000
   20  O  1 YY    0.008232   0.003020   0.000000
   21  O  1 ZZ    0.000333  -0.054684   0.000000
   22  O  1 XY    0.000000   0.000000   0.000000
   23  O  1 XZ    0.000000   0.000000   0.000000
   24  O  1 YZ    0.000000   0.000000  -0.382133
   25  O  1 XXX   0.000000   0.000000   0.000000
   26  O  1 YYY   0.000000   0.000000  -0.009683
   27  O  1 ZZZ   0.006187   0.015567   0.000000
   28  O  1 XXY   0.000000   0.000000   0.003577
   29  O  1 XXZ  -0.015614  -0.004896   0.000000
   30  O  1 YYX   0.000000   0.000000   0.000000
   31  O  1 YYZ   0.007313  -0.015989   0.000000
   32  O  1 ZZX   0.000000   0.000000   0.000000
   33  O  1 ZZY   0.000000   0.000000   0.009414
   34  O  1 XYZ   0.000000   0.000000   0.000000
   35  H  2  S   -0.384505   0.236017   0.102968
   36  H  2  S   -0.085880  -0.046896   0.099298
   37  H  2  S    0.002388   0.017057  -0.018030
   38  H  2  X    0.000000   0.000000   0.000000
   39  H  2  Y   -0.013007   0.037726   0.159280
   40  H  2  Z   -0.052619  -0.090393  -0.051233
   41  H  2  X    0.000000   0.000000   0.000000
   42  H  2  Y    0.015049  -0.008226   0.071129
   43  H  2  Z   -0.065024  -0.065720  -0.011529
   44  H  2 XX   -0.009259  -0.010758  -0.043021
   45  H  2 YY   -0.002492  -0.002378   0.054294
   46  H  2 ZZ    0.011751   0.013137  -0.011274
   47  H  2 XY    0.000000   0.000000   0.000000
   48  H  2 XZ    0.000000   0.000000   0.000000
   49  H  2 YZ   -0.032618  -0.026795  -0.059241
   50  H  3  S   -0.384505   0.236017  -0.102968
   51  H  3  S   -0.085880  -0.046896  -0.099298
   52  H  3  S    0.002388   0.017057   0.018030
   53  H  3  X    0.000000   0.000000   0.000000
   54  H  3  Y    0.013007  -0.037726   0.159280
   55  H  3  Z   -0.052619  -0.090393   0.051233
   56  H  3  X    0.000000   0.000000   0.000000
   57  H  3  Y   -0.015049   0.008226   0.071129
   58  H  3  Z   -0.065024  -0.065720   0.011529
   59  H  3 XX   -0.009259  -0.010758   0.043021
   60  H  3 YY   -0.002492  -0.002378  -0.054294
   61  H  3 ZZ    0.011751   0.013137   0.011274
   62  H  3 XY    0.000000   0.000000   0.000000
   63  H  3 XZ    0.000000   0.000000   0.000000
   64  H  3 YZ    0.032618   0.026795  -0.059241

          ------------------------
          MCSCF OPTIMIZED ORBITALS
          ------------------------

                      1          2          3          4          5
                   -1.3487    -0.7152    -0.5804    -0.5145     0.8013
                     A1         B2         A1         B1         A1  
    1  O  1  S    0.857620   0.000000  -0.308101   0.000000   0.747774
    2  O  1  S   -0.006908   0.000000  -0.006134   0.000000   0.163198
    3  O  1  S   -0.105124   0.000000  -0.082515   0.000000  -0.492983
    4  O  1  X    0.000000   0.000000   0.000000   0.935393   0.000000
    5  O  1  Y    0.000000   0.759248   0.000000   0.000000   0.000000
    6  O  1  Z    0.128904   0.000000   0.828934   0.000000   1.228561
    7  O  1  X    0.000000   0.000000   0.000000   0.008743   0.000000
    8  O  1  Y    0.000000  -0.120997   0.000000   0.000000   0.000000
    9  O  1  Z   -0.044530   0.000000  -0.014980   0.000000  -0.581743
   10  O  1  X    0.000000   0.000000   0.000000   0.007214   0.000000
   11  O  1  Y    0.000000  -0.041158   0.000000   0.000000   0.000000
   12  O  1  Z   -0.021541   0.000000  -0.018540   0.000000  -0.296906
   13  O  1 XX   -0.000267   0.000000  -0.014859   0.000000  -0.000297
   14  O  1 YY    0.001411   0.000000  -0.001888   0.000000  -0.023028
   15  O  1 ZZ   -0.001144   0.000000   0.016747   0.000000   0.023325
   16  O  1 XY    0.000000   0.000000   0.000000   0.000000   0.000000
   17  O  1 XZ    0.000000   0.000000   0.000000   0.016661   0.000000
   18  O  1 YZ    0.000000   0.017242   0.000000   0.000000   0.000000
   19  O  1 XX   -0.004331   0.000000  -0.005057   0.000000  -0.021359
   20  O  1 YY    0.002649   0.000000   0.000175   0.000000   0.007204
   21  O  1 ZZ    0.001682   0.000000   0.004882   0.000000   0.014155
   22  O  1 XY    0.000000   0.000000   0.000000   0.000000   0.000000
   23  O  1 XZ    0.000000   0.000000   0.000000   0.005001   0.000000
   24  O  1 YZ    0.000000   0.012249   0.000000   0.000000   0.000000
   25  O  1 XXX   0.000000   0.000000   0.000000  -0.003577   0.000000
   26  O  1 YYY   0.000000   0.001705   0.000000   0.000000   0.000000
   27  O  1 ZZZ  -0.001680   0.000000  -0.000962   0.000000   0.002047
   28  O  1 XXY   0.000000  -0.005000   0.000000   0.000000   0.000000
   29  O  1 XXZ  -0.001882   0.000000  -0.004164   0.000000  -0.013874
   30  O  1 YYX   0.000000   0.000000   0.000000   0.003299   0.000000
   31  O  1 YYZ   0.004136   0.000000   0.005454   0.000000   0.011127
   32  O  1 ZZX   0.000000   0.000000   0.000000   0.001500   0.000000
   33  O  1 ZZY   0.000000   0.002712   0.000000   0.000000   0.000000
   34  O  1 XYZ   0.000000   0.000000   0.000000   0.000000   0.000000
   35  H  2  S    0.154327  -0.258372   0.156798   0.000000  -0.431393
   36  H  2  S    0.044299  -0.195402   0.058284   0.000000  -0.071135
   37  H  2  S   -0.000860   0.010036  -0.006463   0.000000  -0.002009
   38  H  2  X    0.000000   0.000000   0.000000   0.025246   0.000000
   39  H  2  Y    0.026164  -0.018689   0.018021   0.000000  -0.022080
   40  H  2  Z   -0.015700   0.026550   0.009757   0.000000  -0.028062
   41  H  2  X    0.000000   0.000000   0.000000   0.031413   0.000000
   42  H  2  Y    0.011937  -0.029730  -0.002539   0.000000   0.016651
   43  H  2  Z   -0.008290   0.015013   0.030658   0.000000  -0.046279
   44  H  2 XX   -0.003541   0.004560  -0.001729   0.000000  -0.006243
   45  H  2 YY    0.004365  -0.001631   0.004804   0.000000  -0.001801
   46  H  2 ZZ   -0.000825  -0.002930  -0.003075   0.000000   0.008044
   47  H  2 XY    0.000000   0.000000   0.000000   0.005238   0.000000
   48  H  2 XZ    0.000000   0.000000   0.000000  -0.003454   0.000000
   49  H  2 YZ   -0.005194   0.007569   0.001148   0.000000  -0.024788
   50  H  3  S    0.154327   0.258372   0.156798   0.000000  -0.431393
   51  H  3  S    0.044299   0.195402   0.058284   0.000000  -0.071135
   52  H  3  S   -0.000860  -0.010036  -0.006463   0.000000  -0.002009
   53  H  3  X    0.000000   0.000000   0.000000   0.025246   0.000000
   54  H  3  Y   -0.026164  -0.018689  -0.018021   0.000000   0.022080
   55  H  3  Z   -0.015700  -0.026550   0.009757   0.000000  -0.028062
   56  H  3  X    0.000000   0.000000   0.000000   0.031413   0.000000
   57  H  3  Y   -0.011937  -0.029730   0.002539   0.000000  -0.016651
   58  H  3  Z   -0.008290  -0.015013   0.030658   0.000000  -0.046279
   59  H  3 XX   -0.003541  -0.004560  -0.001729   0.000000  -0.006243
   60  H  3 YY    0.004365   0.001631   0.004804   0.000000  -0.001801
   61  H  3 ZZ   -0.000825   0.002930  -0.003075   0.000000   0.008044
   62  H  3 XY    0.000000   0.000000   0.000000  -0.005238   0.000000
   63  H  3 XZ    0.000000   0.000000   0.000000  -0.003454   0.000000
   64  H  3 YZ    0.005194   0.007569  -0.001148   0.000000   0.024788

                      6          7          8          9         10
                    0.8018     1.2454     2.2296     0.0850     0.0982
                     B2         A1         B2         A1         B2  
    1  O  1  S    0.000000  -1.152056   0.000000  -0.020621   0.000000
    2  O  1  S    0.000000  -0.397618   0.000000  -0.006361   0.000000
    3  O  1  S    0.000000   1.353494   0.000000  -0.691080   0.000000
    4  O  1  X    0.000000   0.000000   0.000000   0.000000   0.000000
    5  O  1  Y    1.420811   0.000000   0.631293   0.000000  -0.051941
    6  O  1  Z    0.000000   0.989358   0.000000  -0.031629   0.000000
    7  O  1  X    0.000000   0.000000   0.000000   0.000000   0.000000
    8  O  1  Y   -0.582973   0.000000  -0.475777   0.000000   0.406594
    9  O  1  Z    0.000000  -0.713562   0.000000  -0.344591   0.000000
   10  O  1  X    0.000000   0.000000   0.000000   0.000000   0.000000
   11  O  1  Y   -0.350636   0.000000  -0.572517   0.000000  -0.047581
   12  O  1  Z    0.000000  -0.512263   0.000000  -0.011803   0.000000
   13  O  1 XX    0.000000   0.047389   0.000000   0.017685   0.000000
   14  O  1 YY    0.000000  -0.002867   0.000000  -0.008327   0.000000
   15  O  1 ZZ    0.000000  -0.044522   0.000000  -0.009358   0.000000
   16  O  1 XY    0.000000   0.000000   0.000000   0.000000   0.000000
   17  O  1 XZ    0.000000   0.000000   0.000000   0.000000   0.000000
   18  O  1 YZ   -0.101408   0.000000   0.517937   0.000000  -0.029489
   19  O  1 XX    0.000000   0.047813   0.000000  -0.002658   0.000000
   20  O  1 YY    0.000000   0.005008   0.000000   0.002675   0.000000
   21  O  1 ZZ    0.000000  -0.052821   0.000000  -0.000018   0.000000
   22  O  1 XY    0.000000   0.000000   0.000000   0.000000   0.000000
   23  O  1 XZ    0.000000   0.000000   0.000000   0.000000   0.000000
   24  O  1 YZ   -0.037228   0.000000   0.380585   0.000000  -0.007896
   25  O  1 XXX   0.000000   0.000000   0.000000   0.000000   0.000000
   26  O  1 YYY  -0.000090   0.000000   0.009698   0.000000  -0.000341
   27  O  1 ZZZ   0.000000   0.016623   0.000000   0.001394   0.000000
   28  O  1 XXY  -0.012723   0.000000  -0.004370   0.000000   0.001008
   29  O  1 XXZ   0.000000  -0.008688   0.000000   0.002096   0.000000
   30  O  1 YYX   0.000000   0.000000   0.000000   0.000000   0.000000
   31  O  1 YYZ   0.000000  -0.013614   0.000000  -0.003966   0.000000
   32  O  1 ZZX   0.000000   0.000000   0.000000   0.000000   0.000000
   33  O  1 ZZY   0.012844   0.000000  -0.008640   0.000000  -0.000550
   34  O  1 XYZ   0.000000   0.000000   0.000000   0.000000   0.000000
   35  H  2  S    0.424017   0.131336  -0.077518   0.067349  -0.025414
   36  H  2  S    0.162433  -0.067027  -0.089792   0.770691   0.299964
   37  H  2  S    0.039723   0.017106   0.020513  -0.731706   2.480244
   38  H  2  X    0.000000   0.000000   0.000000   0.000000   0.000000
   39  H  2  Y   -0.017913   0.033248  -0.160703   0.025421  -0.008820
   40  H  2  Z    0.009840  -0.100785   0.051969  -0.016122   0.000898
   41  H  2  X    0.000000   0.000000   0.000000   0.000000   0.000000
   42  H  2  Y    0.002303  -0.004135  -0.071162   0.127915   0.384870
   43  H  2  Z    0.020857  -0.080041   0.012850  -0.110756  -0.084439
   44  H  2 XX    0.012001  -0.012755   0.043843  -0.002232  -0.000030
   45  H  2 YY   -0.012225  -0.002925  -0.055148   0.002021   0.003590
   46  H  2 ZZ    0.000224   0.015680   0.011304   0.000212  -0.003561
   47  H  2 XY    0.000000   0.000000   0.000000   0.000000   0.000000
   48  H  2 XZ    0.000000   0.000000   0.000000   0.000000   0.000000
   49  H  2 YZ    0.021740  -0.034180   0.060695  -0.003924   0.003576
   50  H  3  S   -0.424017   0.131336   0.077518   0.067349   0.025414
   51  H  3  S   -0.162433  -0.067027   0.089792   0.770691  -0.299964
   52  H  3  S   -0.039723   0.017106  -0.020513  -0.731706  -2.480244
   53  H  3  X    0.000000   0.000000   0.000000   0.000000   0.000000
   54  H  3  Y   -0.017913  -0.033248  -0.160703  -0.025421  -0.008820
   55  H  3  Z   -0.009840  -0.100785  -0.051969  -0.016122  -0.000898
   56  H  3  X    0.000000   0.000000   0.000000   0.000000   0.000000
   57  H  3  Y    0.002303   0.004135  -0.071162  -0.127915   0.384870
   58  H  3  Z   -0.020857  -0.080041  -0.012850  -0.110756   0.084439
   59  H  3 XX   -0.012001  -0.012755  -0.043843  -0.002232   0.000030
   60  H  3 YY    0.012225  -0.002925   0.055148   0.002021  -0.003590
   61  H  3 ZZ   -0.000224   0.015680  -0.011304   0.000212   0.003561
   62  H  3 XY    0.000000   0.000000   0.000000   0.000000   0.000000
   63  H  3 XZ    0.000000   0.000000   0.000000   0.000000   0.000000
   64  H  3 YZ    0.021740   0.034180   0.060695   0.003924   0.003576

                     11         12         13         14         15
                    0.3607     0.3891     0.4163     0.4190     0.5342
                     B1         A1         A2         B2         A1  
    1  O  1  S    0.000000  -0.006384   0.000000   0.000000  -0.012387
    2  O  1  S    0.000000   0.005277   0.000000   0.000000   0.000858
    3  O  1  S    0.000000   1.386669   0.000000   0.000000  -1.415921
    4  O  1  X   -0.348322   0.000000   0.000000   0.000000   0.000000
    5  O  1  Y    0.000000   0.000000   0.000000   0.143404   0.000000
    6  O  1  Z    0.000000   0.002644   0.000000   0.000000  -0.194323
    7  O  1  X   -0.858150   0.000000   0.000000   0.000000   0.000000
    8  O  1  Y    0.000000   0.000000   0.000000   2.805094   0.000000
    9  O  1  Z    0.000000   0.837641   0.000000   0.000000   1.511834
   10  O  1  X    0.002672   0.000000   0.000000   0.000000   0.000000
   11  O  1  Y    0.000000   0.000000   0.000000   0.039381   0.000000
   12  O  1  Z    0.000000  -0.014919   0.000000   0.000000  -0.256561
   13  O  1 XX    0.000000  -0.022018   0.000000   0.000000  -0.025364
   14  O  1 YY    0.000000  -0.001002   0.000000   0.000000  -0.030050
   15  O  1 ZZ    0.000000   0.023020   0.000000   0.000000   0.055415
   16  O  1 XY    0.000000   0.000000   0.012678   0.000000   0.000000
   17  O  1 XZ   -0.027892   0.000000   0.000000   0.000000   0.000000
   18  O  1 YZ    0.000000   0.000000   0.000000   0.040503   0.000000
   19  O  1 XX    0.000000  -0.001818   0.000000   0.000000   0.011059
   20  O  1 YY    0.000000   0.011444   0.000000   0.000000   0.001889
   21  O  1 ZZ    0.000000  -0.009626   0.000000   0.000000  -0.012948
   22  O  1 XY    0.000000   0.000000  -0.013524   0.000000   0.000000
   23  O  1 XZ    0.008869   0.000000   0.000000   0.000000   0.000000
   24  O  1 YZ    0.000000   0.000000   0.000000  -0.009291   0.000000
   25  O  1 XXX   0.003522   0.000000   0.000000   0.000000   0.000000
   26  O  1 YYY   0.000000   0.000000   0.000000   0.001254   0.000000
   27  O  1 ZZZ   0.000000  -0.001677   0.000000   0.000000   0.004995
   28  O  1 XXY   0.000000   0.000000   0.000000  -0.004163   0.000000
   29  O  1 XXZ   0.000000  -0.002473   0.000000   0.000000  -0.002562
   30  O  1 YYX  -0.004065   0.000000   0.000000   0.000000   0.000000
   31  O  1 YYZ   0.000000   0.004723   0.000000   0.000000  -0.004139
   32  O  1 ZZX  -0.000661   0.000000   0.000000   0.000000   0.000000
   33  O  1 ZZY   0.000000   0.000000   0.000000   0.002480   0.000000
   34  O  1 XYZ   0.000000   0.000000   0.001113   0.000000   0.000000
   35  H  2  S    0.000000   0.012100   0.000000   0.081592   0.094829
   36  H  2  S    0.000000  -0.436772   0.000000   4.435702  -0.222937
   37  H  2  S    0.000000  -0.019224   0.000000   0.769785   0.308925
   38  H  2  X   -0.017945   0.000000  -0.010587   0.000000   0.000000
   39  H  2  Y    0.000000  -0.009356   0.000000   0.033544  -0.019826
   40  H  2  Z    0.000000   0.005664   0.000000  -0.014590  -0.010525
   41  H  2  X    0.968093   0.000000   1.051188   0.000000   0.000000
   42  H  2  Y    0.000000  -0.979390   0.000000   1.885009   0.565338
   43  H  2  Z    0.000000  -0.153125   0.000000  -2.063528  -1.064895
   44  H  2 XX    0.000000  -0.000903   0.000000  -0.015960  -0.016269
   45  H  2 YY    0.000000  -0.012754   0.000000   0.009443  -0.000580
   46  H  2 ZZ    0.000000   0.013657   0.000000   0.006517   0.016849
   47  H  2 XY    0.014191   0.000000   0.013220   0.000000   0.000000
   48  H  2 XZ   -0.008099   0.000000  -0.011341   0.000000   0.000000
   49  H  2 YZ    0.000000   0.000225   0.000000  -0.020311  -0.039724
   50  H  3  S    0.000000   0.012100   0.000000  -0.081592   0.094829
   51  H  3  S    0.000000  -0.436772   0.000000  -4.435702  -0.222937
   52  H  3  S    0.000000  -0.019224   0.000000  -0.769785   0.308925
   53  H  3  X   -0.017945   0.000000   0.010587   0.000000   0.000000
   54  H  3  Y    0.000000   0.009356   0.000000   0.033544   0.019826
   55  H  3  Z    0.000000   0.005664   0.000000   0.014590  -0.010525
   56  H  3  X    0.968093   0.000000  -1.051188   0.000000   0.000000
   57  H  3  Y    0.000000   0.979390   0.000000   1.885009  -0.565338
   58  H  3  Z    0.000000  -0.153125   0.000000   2.063528  -1.064895
   59  H  3 XX    0.000000  -0.000903   0.000000   0.015960  -0.016269
   60  H  3 YY    0.000000  -0.012754   0.000000  -0.009443  -0.000580
   61  H  3 ZZ    0.000000   0.013657   0.000000  -0.006517   0.016849
   62  H  3 XY   -0.014191   0.000000   0.013220   0.000000   0.000000
   63  H  3 XZ   -0.008099   0.000000   0.011341   0.000000   0.000000
   64  H  3 YZ    0.000000  -0.000225   0.000000  -0.020311   0.039724

                     16         17         18         19         20
                    0.5702     0.7874     0.7935     1.0365     1.3706
                     B2         B1         A1         B2         A1  
    1  O  1  S    0.000000   0.000000  -0.346429   0.000000  -1.479132
    2  O  1  S    0.000000   0.000000  -0.135877   0.000000  -0.186880
    3  O  1  S    0.000000   0.000000   4.823768   0.000000   5.069821
    4  O  1  X    0.000000  -0.508347   0.000000   0.000000   0.000000
    5  O  1  Y    0.090089   0.000000   0.000000  -0.263047   0.000000
    6  O  1  Z    0.000000   0.000000  -0.114993   0.000000   0.226403
    7  O  1  X    0.000000   2.281752   0.000000   0.000000   0.000000
    8  O  1  Y   -1.000756   0.000000   0.000000   6.769423   0.000000
    9  O  1  Z    0.000000   0.000000   0.367614   0.000000   1.357638
   10  O  1  X    0.000000  -0.520330   0.000000   0.000000   0.000000
   11  O  1  Y    0.317900   0.000000   0.000000   0.346667   0.000000
   12  O  1  Z    0.000000   0.000000   0.607554   0.000000  -0.344335
   13  O  1 XX    0.000000   0.000000  -0.302679   0.000000   0.327147
   14  O  1 YY    0.000000   0.000000   0.276963   0.000000  -0.020529
   15  O  1 ZZ    0.000000   0.000000   0.025715   0.000000  -0.306618
   16  O  1 XY    0.000000   0.000000   0.000000   0.000000   0.000000
   17  O  1 XZ    0.000000  -0.022887   0.000000   0.000000   0.000000
   18  O  1 YZ    0.175416   0.000000   0.000000   0.627622   0.000000
   19  O  1 XX    0.000000   0.000000  -0.007198   0.000000   0.013643
   20  O  1 YY    0.000000   0.000000   0.007055   0.000000  -0.004843
   21  O  1 ZZ    0.000000   0.000000   0.000142   0.000000  -0.008800
   22  O  1 XY    0.000000   0.000000   0.000000   0.000000   0.000000
   23  O  1 XZ    0.000000  -0.011708   0.000000   0.000000   0.000000
   24  O  1 YZ    0.021286   0.000000   0.000000  -0.000305   0.000000
   25  O  1 XXX   0.000000  -0.003524   0.000000   0.000000   0.000000
   26  O  1 YYY  -0.001363   0.000000   0.000000   0.006087   0.000000
   27  O  1 ZZZ   0.000000   0.000000  -0.032411   0.000000   0.002065
   28  O  1 XXY  -0.009733   0.000000   0.000000  -0.051358   0.000000
   29  O  1 XXZ   0.000000   0.000000  -0.040595   0.000000  -0.000454
   30  O  1 YYX   0.000000   0.003274   0.000000   0.000000   0.000000
   31  O  1 YYZ   0.000000   0.000000   0.084079   0.000000  -0.002317
   32  O  1 ZZX   0.000000   0.001455   0.000000   0.000000   0.000000
   33  O  1 ZZY   0.011562   0.000000   0.000000   0.043191   0.000000
   34  O  1 XYZ   0.000000   0.000000   0.000000   0.000000   0.000000
   35  H  2  S    0.038020   0.000000   0.268924  -0.184664  -0.462093
   36  H  2  S    1.462563   0.000000  -2.578568  10.354105  -1.538524
   37  H  2  S    0.966900   0.000000   0.280293   0.346234   0.034400
   38  H  2  X    0.000000  -0.059022   0.000000   0.000000   0.000000
   39  H  2  Y    0.037228   0.000000  -0.351645   0.301204  -0.098453
   40  H  2  Z   -0.077260   0.000000   0.241667  -0.280172  -0.156864
   41  H  2  X    0.000000  -0.646861   0.000000   0.000000   0.000000
   42  H  2  Y    2.072555   0.000000  -0.559911   3.074647  -0.599294
   43  H  2  Z    0.699918   0.000000   0.756366  -2.308924   0.546148
   44  H  2 XX   -0.038440   0.000000   0.068963  -0.052039   0.047087
   45  H  2 YY    0.045038   0.000000  -0.056453   0.052210  -0.008139
   46  H  2 ZZ   -0.006598   0.000000  -0.012510  -0.000172  -0.038947
   47  H  2 XY    0.000000  -0.013369   0.000000   0.000000   0.000000
   48  H  2 XZ    0.000000  -0.003399   0.000000   0.000000   0.000000
   49  H  2 YZ   -0.037740   0.000000   0.123236  -0.103036  -0.025396
   50  H  3  S   -0.038020   0.000000   0.268924   0.184664  -0.462093
   51  H  3  S   -1.462563   0.000000  -2.578568 -10.354105  -1.538524
   52  H  3  S   -0.966900   0.000000   0.280293  -0.346234   0.034400
   53  H  3  X    0.000000  -0.059022   0.000000   0.000000   0.000000
   54  H  3  Y    0.037228   0.000000   0.351645   0.301204   0.098453
   55  H  3  Z    0.077260   0.000000   0.241667   0.280172  -0.156864
   56  H  3  X    0.000000  -0.646861   0.000000   0.000000   0.000000
   57  H  3  Y    2.072555   0.000000   0.559911   3.074647   0.599294
   58  H  3  Z   -0.699918   0.000000   0.756366   2.308924   0.546148
   59  H  3 XX    0.038440   0.000000   0.068963   0.052039   0.047087
   60  H  3 YY   -0.045038   0.000000  -0.056453  -0.052210  -0.008139
   61  H  3 ZZ    0.006598   0.000000  -0.012510   0.000172  -0.038947
   62  H  3 XY    0.000000   0.013369   0.000000   0.000000   0.000000
   63  H  3 XZ    0.000000  -0.003399   0.000000   0.000000   0.000000
   64  H  3 YZ   -0.037740   0.000000  -0.123236  -0.103036   0.025396

                     21         22         23         24         25
                    1.4711     1.5700     1.6746     1.6858     2.0679
                     B2         A1         A2         B1         A1  
    1  O  1  S    0.000000  -0.782741   0.000000   0.000000  -0.546862
    2  O  1  S    0.000000  -0.104612   0.000000   0.000000  -0.080832
    3  O  1  S    0.000000   3.095571   0.000000   0.000000   1.299376
    4  O  1  X    0.000000   0.000000   0.000000  -0.388562   0.000000
    5  O  1  Y    0.391071   0.000000   0.000000   0.000000   0.000000
    6  O  1  Z    0.000000  -0.155857   0.000000   0.000000   0.159033
    7  O  1  X    0.000000   0.000000   0.000000   0.715173   0.000000
    8  O  1  Y    2.329334   0.000000   0.000000   0.000000   0.000000
    9  O  1  Z    0.000000   0.740897   0.000000   0.000000   0.594724
   10  O  1  X    0.000000   0.000000   0.000000   0.078329   0.000000
   11  O  1  Y   -1.707222   0.000000   0.000000   0.000000   0.000000
   12  O  1  Z    0.000000   0.242092   0.000000   0.000000  -0.438506
   13  O  1 XX    0.000000   0.034466   0.000000   0.000000  -0.625273
   14  O  1 YY    0.000000  -0.472230   0.000000   0.000000   0.461312
   15  O  1 ZZ    0.000000   0.437764   0.000000   0.000000   0.163961
   16  O  1 XY    0.000000   0.000000   0.690467   0.000000   0.000000
   17  O  1 XZ    0.000000   0.000000   0.000000   0.706650   0.000000
   18  O  1 YZ    0.033408   0.000000   0.000000   0.000000   0.000000
   19  O  1 XX    0.000000   0.003555   0.000000   0.000000  -0.005877
   20  O  1 YY    0.000000  -0.008159   0.000000   0.000000   0.000510
   21  O  1 ZZ    0.000000   0.004604   0.000000   0.000000   0.005367
   22  O  1 XY    0.000000   0.000000   0.003183   0.000000   0.000000
   23  O  1 XZ    0.000000   0.000000   0.000000  -0.003222   0.000000
   24  O  1 YZ    0.027278   0.000000   0.000000   0.000000   0.000000
   25  O  1 XXX   0.000000   0.000000   0.000000  -0.014940   0.000000
   26  O  1 YYY  -0.012260   0.000000   0.000000   0.000000   0.000000
   27  O  1 ZZZ   0.000000  -0.000150   0.000000   0.000000   0.007011
   28  O  1 XXY   0.067707   0.000000   0.000000   0.000000   0.000000
   29  O  1 XXZ   0.000000  -0.009019   0.000000   0.000000   0.022809
   30  O  1 YYX   0.000000   0.000000   0.000000   0.009729   0.000000
   31  O  1 YYZ   0.000000   0.009220   0.000000   0.000000  -0.032215
   32  O  1 ZZX   0.000000   0.000000   0.000000   0.010316   0.000000
   33  O  1 ZZY  -0.051259   0.000000   0.000000   0.000000   0.000000
   34  O  1 XYZ   0.000000   0.000000   0.018198   0.000000   0.000000
   35  H  2  S    0.336579  -0.228320   0.000000   0.000000  -0.414386
   36  H  2  S    0.229685  -0.932487   0.000000   0.000000  -0.200786
   37  H  2  S    0.341522   0.022950   0.000000   0.000000  -0.008731
   38  H  2  X    0.000000   0.000000  -0.430144   0.392811   0.000000
   39  H  2  Y   -0.646308   0.176517   0.000000   0.000000   0.334333
   40  H  2  Z    0.264362   0.377601   0.000000   0.000000  -0.213160
   41  H  2  X    0.000000   0.000000   0.520777  -0.446994   0.000000
   42  H  2  Y   -0.253511  -0.663056   0.000000   0.000000  -0.226001
   43  H  2  Z   -0.470765   0.034429   0.000000   0.000000   0.078007
   44  H  2 XX    0.076680   0.012503   0.000000   0.000000  -0.059245
   45  H  2 YY   -0.061027  -0.069457   0.000000   0.000000   0.032022
   46  H  2 ZZ   -0.015654   0.056955   0.000000   0.000000   0.027223
   47  H  2 XY    0.000000   0.000000   0.087052  -0.026424   0.000000
   48  H  2 XZ    0.000000   0.000000  -0.024718   0.110386   0.000000
   49  H  2 YZ    0.223005   0.043481   0.000000   0.000000   0.244474
   50  H  3  S   -0.336579  -0.228320   0.000000   0.000000  -0.414386
   51  H  3  S   -0.229685  -0.932487   0.000000   0.000000  -0.200786
   52  H  3  S   -0.341522   0.022950   0.000000   0.000000  -0.008731
   53  H  3  X    0.000000   0.000000   0.430144   0.392811   0.000000
   54  H  3  Y   -0.646308  -0.176517   0.000000   0.000000  -0.334333
   55  H  3  Z   -0.264362   0.377601   0.000000   0.000000  -0.213160
   56  H  3  X    0.000000   0.000000  -0.520777  -0.446994   0.000000
   57  H  3  Y   -0.253511   0.663056   0.000000   0.000000   0.226001
   58  H  3  Z    0.470765   0.034429   0.000000   0.000000   0.078007
   59  H  3 XX   -0.076680   0.012503   0.000000   0.000000  -0.059245
   60  H  3 YY    0.061027  -0.069457   0.000000   0.000000   0.032022
   61  H  3 ZZ    0.015654   0.056955   0.000000   0.000000   0.027223
   62  H  3 XY    0.000000   0.000000   0.087052   0.026424   0.000000
   63  H  3 XZ    0.000000   0.000000   0.024718   0.110386   0.000000
   64  H  3 YZ    0.223005  -0.043481   0.000000   0.000000  -0.244474

                     26         27         28         29         30
                    2.0959     2.2861     2.3784     2.5763     2.5911
                     B2         B1         A2         B2         A1  
    1  O  1  S    0.000000   0.000000   0.000000   0.000000  -0.523269
    2  O  1  S    0.000000   0.000000   0.000000   0.000000  -0.072779
    3  O  1  S    0.000000   0.000000   0.000000   0.000000   1.061933
    4  O  1  X    0.000000  -0.348031   0.000000   0.000000   0.000000
    5  O  1  Y   -0.149424   0.000000   0.000000   0.866384   0.000000
    6  O  1  Z    0.000000   0.000000   0.000000   0.000000   0.919629
    7  O  1  X    0.000000  -0.215731   0.000000   0.000000   0.000000
    8  O  1  Y    0.352732   0.000000   0.000000   1.475102   0.000000
    9  O  1  Z    0.000000   0.000000   0.000000   0.000000   0.861505
   10  O  1  X    0.000000   0.285003   0.000000   0.000000   0.000000
   11  O  1  Y   -0.246012   0.000000   0.000000  -1.162246   0.000000
   12  O  1  Z    0.000000   0.000000   0.000000   0.000000  -1.028879
   13  O  1 XX    0.000000   0.000000   0.000000   0.000000  -0.493097
   14  O  1 YY    0.000000   0.000000   0.000000   0.000000  -0.395868
   15  O  1 ZZ    0.000000   0.000000   0.000000   0.000000   0.888964
   16  O  1 XY    0.000000   0.000000   0.782183   0.000000   0.000000
   17  O  1 XZ    0.000000  -0.623100   0.000000   0.000000   0.000000
   18  O  1 YZ    0.142346   0.000000   0.000000   0.238995   0.000000
   19  O  1 XX    0.000000   0.000000   0.000000   0.000000   0.020428
   20  O  1 YY    0.000000   0.000000   0.000000   0.000000  -0.017218
   21  O  1 ZZ    0.000000   0.000000   0.000000   0.000000  -0.003210
   22  O  1 XY    0.000000   0.000000  -0.012732   0.000000   0.000000
   23  O  1 XZ    0.000000   0.004856   0.000000   0.000000   0.000000
   24  O  1 YZ    0.021025   0.000000   0.000000  -0.026506   0.000000
   25  O  1 XXX   0.000000  -0.032777   0.000000   0.000000   0.000000
   26  O  1 YYY   0.027138   0.000000   0.000000   0.025051   0.000000
   27  O  1 ZZZ   0.000000   0.000000   0.000000   0.000000  -0.008584
   28  O  1 XXY   0.019776   0.000000   0.000000  -0.009333   0.000000
   29  O  1 XXZ   0.000000   0.000000   0.000000   0.000000   0.011492
   30  O  1 YYX   0.000000   0.038056   0.000000   0.000000   0.000000
   31  O  1 YYZ   0.000000   0.000000   0.000000   0.000000   0.000024
   32  O  1 ZZX   0.000000   0.005918   0.000000   0.000000   0.000000
   33  O  1 ZZY  -0.056186   0.000000   0.000000  -0.024277   0.000000
   34  O  1 XYZ   0.000000   0.000000  -0.039420   0.000000   0.000000
   35  H  2  S    0.175232   0.000000   0.000000   0.020306  -0.202696
   36  H  2  S   -0.602121   0.000000   0.000000   0.981024  -0.407970
   37  H  2  S   -0.149496   0.000000   0.000000  -0.154993   0.091490
   38  H  2  X    0.000000   0.638125   0.681082   0.000000   0.000000
   39  H  2  Y    0.214737   0.000000   0.000000   0.410901  -0.527066
   40  H  2  Z    0.763358   0.000000   0.000000  -0.101535  -0.274815
   41  H  2  X    0.000000  -0.042177  -0.170378   0.000000   0.000000
   42  H  2  Y   -0.531102   0.000000   0.000000  -0.261349   0.145795
   43  H  2  Z   -0.418035   0.000000   0.000000  -0.324226  -0.140198
   44  H  2 XX   -0.019249   0.000000   0.000000   0.346989  -0.059144
   45  H  2 YY   -0.113269   0.000000   0.000000  -0.341565   0.167864
   46  H  2 ZZ    0.132518   0.000000   0.000000  -0.005424  -0.108720
   47  H  2 XY    0.000000  -0.260391  -0.025651   0.000000   0.000000
   48  H  2 XZ    0.000000  -0.064178   0.215912   0.000000   0.000000
   49  H  2 YZ   -0.062346   0.000000   0.000000   0.359294  -0.215270
   50  H  3  S   -0.175232   0.000000   0.000000  -0.020306  -0.202696
   51  H  3  S    0.602121   0.000000   0.000000  -0.981024  -0.407970
   52  H  3  S    0.149496   0.000000   0.000000   0.154993   0.091490
   53  H  3  X    0.000000   0.638125  -0.681082   0.000000   0.000000
   54  H  3  Y    0.214737   0.000000   0.000000   0.410901   0.527066
   55  H  3  Z   -0.763358   0.000000   0.000000   0.101535  -0.274815
   56  H  3  X    0.000000  -0.042177   0.170378   0.000000   0.000000
   57  H  3  Y   -0.531102   0.000000   0.000000  -0.261349  -0.145795
   58  H  3  Z    0.418035   0.000000   0.000000   0.324226  -0.140198
   59  H  3 XX    0.019249   0.000000   0.000000  -0.346989  -0.059144
   60  H  3 YY    0.113269   0.000000   0.000000   0.341565   0.167864
   61  H  3 ZZ   -0.132518   0.000000   0.000000   0.005424  -0.108720
   62  H  3 XY    0.000000   0.260391  -0.025651   0.000000   0.000000
   63  H  3 XZ    0.000000  -0.064178  -0.215912   0.000000   0.000000
   64  H  3 YZ   -0.062346   0.000000   0.000000   0.359294   0.215270

                     31         32         33         34         35
                    2.7618     2.8976     2.9166     3.0993     3.2351
                     A1         B1         A1         B2         A2  
    1  O  1  S   -0.540284   0.000000  -0.232322   0.000000   0.000000
    2  O  1  S   -0.097376   0.000000  -0.025570   0.000000   0.000000
    3  O  1  S    1.803973   0.000000  -0.585693   0.000000   0.000000
    4  O  1  X    0.000000  -0.264760   0.000000   0.000000   0.000000
    5  O  1  Y    0.000000   0.000000   0.000000  -0.061177   0.000000
    6  O  1  Z    0.863582   0.000000   0.250302   0.000000   0.000000
    7  O  1  X    0.000000  -0.035035   0.000000   0.000000   0.000000
    8  O  1  Y    0.000000   0.000000   0.000000   0.766439   0.000000
    9  O  1  Z    0.763478   0.000000   0.116512   0.000000   0.000000
   10  O  1  X    0.000000   0.295278   0.000000   0.000000   0.000000
   11  O  1  Y    0.000000   0.000000   0.000000   0.677788   0.000000
   12  O  1  Z   -0.768939   0.000000  -0.341965   0.000000   0.000000
   13  O  1 XX   -0.329717   0.000000  -0.381032   0.000000   0.000000
   14  O  1 YY    0.524191   0.000000  -0.221796   0.000000   0.000000
   15  O  1 ZZ   -0.194474   0.000000   0.602828   0.000000   0.000000
   16  O  1 XY    0.000000   0.000000   0.000000   0.000000  -0.245642
   17  O  1 XZ    0.000000  -0.569455   0.000000   0.000000   0.000000
   18  O  1 YZ    0.000000   0.000000   0.000000   0.068735   0.000000
   19  O  1 XX    0.026572   0.000000  -0.005154   0.000000   0.000000
   20  O  1 YY   -0.013213   0.000000   0.041300   0.000000   0.000000
   21  O  1 ZZ   -0.013359   0.000000  -0.036146   0.000000   0.000000
   22  O  1 XY    0.000000   0.000000   0.000000   0.000000  -0.022655
   23  O  1 XZ    0.000000  -0.002520   0.000000   0.000000   0.000000
   24  O  1 YZ    0.000000   0.000000   0.000000  -0.024092   0.000000
   25  O  1 XXX   0.000000  -0.026230   0.000000   0.000000   0.000000
[...]
   59  H  3 XX    0.098397   0.265652  -0.025288   0.000000   0.000000
   60  H  3 YY   -0.432723   0.055690   0.296972   0.000000   0.000000
   61  H  3 ZZ    0.334326  -0.321342  -0.271684   0.000000   0.000000
   62  H  3 XY    0.000000   0.000000   0.000000   0.486558   0.459561
   63  H  3 XZ    0.000000   0.000000   0.000000   0.432019   0.316196
   64  H  3 YZ    0.158620  -0.292376  -0.215177   0.000000   0.000000

                     51         52         53         54         55
                    7.0869     7.1977     7.3145     7.3223     7.6492
                     B2         B1         A2         A1         A1  
    1  O  1  S    0.000000   0.000000   0.000000   0.269036  -0.459262
    2  O  1  S    0.000000   0.000000   0.000000  -0.268762  -0.147300
    3  O  1  S    0.000000   0.000000   0.000000   0.269867   2.429019
    4  O  1  X    0.000000   0.229511   0.000000   0.000000   0.000000
    5  O  1  Y    0.204920   0.000000   0.000000   0.000000   0.000000
    6  O  1  Z    0.000000   0.000000   0.000000  -0.542432  -0.354989
    7  O  1  X    0.000000  -0.309750   0.000000   0.000000   0.000000
    8  O  1  Y   -0.542289   0.000000   0.000000   0.000000   0.000000
    9  O  1  Z    0.000000   0.000000   0.000000   0.529099   0.516949
   10  O  1  X    0.000000  -0.621819   0.000000   0.000000   0.000000
   11  O  1  Y    0.354245   0.000000   0.000000   0.000000   0.000000
   12  O  1  Z    0.000000   0.000000   0.000000   0.963943   0.424500
   13  O  1 XX    0.000000   0.000000   0.000000  -0.673840  -0.830207
   14  O  1 YY    0.000000   0.000000   0.000000  -0.591572   1.522673
   15  O  1 ZZ    0.000000   0.000000   0.000000   1.265412  -0.692466
   16  O  1 XY    0.000000   0.000000   1.302134   0.000000   0.000000
   17  O  1 XZ    0.000000  -1.046017   0.000000   0.000000   0.000000
   18  O  1 YZ    0.099966   0.000000   0.000000   0.000000   0.000000
   19  O  1 XX    0.000000   0.000000   0.000000   0.847129   0.717384
   20  O  1 YY    0.000000   0.000000   0.000000   0.246754  -1.029619
   21  O  1 ZZ    0.000000   0.000000   0.000000  -1.093884   0.312236
   22  O  1 XY    0.000000   0.000000  -0.974018   0.000000   0.000000
   23  O  1 XZ    0.000000   1.107879   0.000000   0.000000   0.000000
   24  O  1 YZ    0.684845   0.000000   0.000000   0.000000   0.000000
   25  O  1 XXX   0.000000   0.540101   0.000000   0.000000   0.000000
   26  O  1 YYY  -0.909866   0.000000   0.000000   0.000000   0.000000
   27  O  1 ZZZ   0.000000   0.000000   0.000000   0.386152  -0.538259
   28  O  1 XXY   0.053559   0.000000   0.000000   0.000000   0.000000
   29  O  1 XXZ   0.000000   0.000000   0.000000  -0.421554  -0.123884
   30  O  1 YYX   0.000000  -0.380307   0.000000   0.000000   0.000000
   31  O  1 YYZ   0.000000   0.000000   0.000000  -0.096523   0.846034
   32  O  1 ZZX   0.000000  -0.344314   0.000000   0.000000   0.000000
   33  O  1 ZZY   1.167154   0.000000   0.000000   0.000000   0.000000
   34  O  1 XYZ   0.000000   0.000000   0.872381   0.000000   0.000000
   35  H  2  S    0.408997   0.000000   0.000000  -0.362732  -0.866667
   36  H  2  S    0.002346   0.000000   0.000000  -0.079472  -0.556587
   37  H  2  S   -0.004602   0.000000   0.000000   0.020690   0.029005
   38  H  2  X    0.000000   0.425011   0.583756   0.000000   0.000000
   39  H  2  Y    0.765554   0.000000   0.000000  -0.373482   0.021714
   40  H  2  Z    0.023375   0.000000   0.000000  -0.334667   0.561318
   41  H  2  X    0.000000   0.111668   0.098781   0.000000   0.000000
   42  H  2  Y    0.152396   0.000000   0.000000  -0.005859  -0.123448
   43  H  2  Z    0.128085   0.000000   0.000000  -0.092741   0.121590
   44  H  2 XX   -0.160134   0.000000   0.000000   0.034330  -0.051289
   45  H  2 YY    0.603319   0.000000   0.000000  -0.236993   0.312522
   46  H  2 ZZ   -0.443185   0.000000   0.000000   0.202663  -0.261233
   47  H  2 XY    0.000000   0.301631   0.325393   0.000000   0.000000
   48  H  2 XZ    0.000000  -0.104963  -0.330443   0.000000   0.000000
   49  H  2 YZ   -0.138870   0.000000   0.000000  -0.216943  -0.057487
   50  H  3  S   -0.408997   0.000000   0.000000  -0.362732  -0.866667
   51  H  3  S   -0.002346   0.000000   0.000000  -0.079472  -0.556587
   52  H  3  S    0.004602   0.000000   0.000000   0.020690   0.029005
   53  H  3  X    0.000000   0.425011  -0.583756   0.000000   0.000000
   54  H  3  Y    0.765554   0.000000   0.000000   0.373482  -0.021714
   55  H  3  Z   -0.023375   0.000000   0.000000  -0.334667   0.561318
   56  H  3  X    0.000000   0.111668  -0.098781   0.000000   0.000000
   57  H  3  Y    0.152396   0.000000   0.000000   0.005859   0.123448
   58  H  3  Z   -0.128085   0.000000   0.000000  -0.092741   0.121590
   59  H  3 XX    0.160134   0.000000   0.000000   0.034330  -0.051289
   60  H  3 YY   -0.603319   0.000000   0.000000  -0.236993   0.312522
   61  H  3 ZZ    0.443185   0.000000   0.000000   0.202663  -0.261233
   62  H  3 XY    0.000000  -0.301631   0.325393   0.000000   0.000000
   63  H  3 XZ    0.000000  -0.104963   0.330443   0.000000   0.000000
   64  H  3 YZ   -0.138870   0.000000   0.000000   0.216943   0.057487

                     56         57
                    7.7159    10.3832
                     B2         A1  
    1  O  1  S    0.000000   7.688963
    2  O  1  S    0.000000  -2.453315
    3  O  1  S    0.000000  -5.373762
    4  O  1  X    0.000000   0.000000
    5  O  1  Y   -0.821870   0.000000
    6  O  1  Z    0.000000   0.037926
    7  O  1  X    0.000000   0.000000
    8  O  1  Y    1.462003   0.000000
    9  O  1  Z    0.000000  -0.756192
   10  O  1  X    0.000000   0.000000
   11  O  1  Y    1.796874   0.000000
   12  O  1  Z    0.000000   1.274600
   13  O  1 XX    0.000000  -0.304774
   14  O  1 YY    0.000000   0.410912
   15  O  1 ZZ    0.000000  -0.106137
   16  O  1 XY    0.000000   0.000000
   17  O  1 XZ    0.000000   0.000000
   18  O  1 YZ    2.095456   0.000000
   19  O  1 XX    0.000000  -0.255329
   20  O  1 YY    0.000000   0.163506
   21  O  1 ZZ    0.000000   0.091823
   22  O  1 XY    0.000000   0.000000
   23  O  1 XZ    0.000000   0.000000
   24  O  1 YZ   -0.938936   0.000000
   25  O  1 XXX   0.000000   0.000000
   26  O  1 YYY  -0.346000   0.000000
   27  O  1 ZZZ   0.000000  -0.196993
   28  O  1 XXY  -0.485685   0.000000
   29  O  1 XXZ   0.000000  -0.181969
   30  O  1 YYX   0.000000   0.000000
   31  O  1 YYZ   0.000000   0.446263
   32  O  1 ZZX   0.000000   0.000000
   33  O  1 ZZY   0.949893   0.000000
   34  O  1 XYZ   0.000000   0.000000
   35  H  2  S    1.517150  -0.922840
   36  H  2  S    1.204329   0.645245
   37  H  2  S    0.033165  -0.028404
   38  H  2  X    0.000000   0.000000
   39  H  2  Y    0.714128  -0.798019
   40  H  2  Z   -0.247304   0.707576
   41  H  2  X    0.000000   0.000000
   42  H  2  Y    0.247456   0.276550
   43  H  2  Z   -0.317519  -0.109304
   44  H  2 XX    0.113008   0.268267
   45  H  2 YY    0.131210  -0.185945
   46  H  2 ZZ   -0.244218  -0.082322
   47  H  2 XY    0.000000   0.000000
   48  H  2 XZ    0.000000   0.000000
   49  H  2 YZ    0.104388   0.438295
   50  H  3  S   -1.517150  -0.922840
   51  H  3  S   -1.204329   0.645245
   52  H  3  S   -0.033165  -0.028404
   53  H  3  X    0.000000   0.000000
   54  H  3  Y    0.714128   0.798019
   55  H  3  Z    0.247304   0.707576
   56  H  3  X    0.000000   0.000000
   57  H  3  Y    0.247456  -0.276550
   58  H  3  Z    0.317519  -0.109304
   59  H  3 XX   -0.113008   0.268267
   60  H  3 YY   -0.131210  -0.185945
   61  H  3 ZZ    0.244218  -0.082322
   62  H  3 XY    0.000000   0.000000
   63  H  3 XZ    0.000000   0.000000
   64  H  3 YZ    0.104388  -0.438295
 .....DONE WITH MCSCF ITERATIONS.....
 CPU     0: STEP CPU TIME=     0.09 TOTAL CPU TIME=        0.5 (    0.0 MIN)
 TOTAL WALL CLOCK TIME=        1.1 SECONDS, CPU UTILIZATION IS  44.34%

     ----------------------------------------------------------------
     PROPERTY VALUES FOR THE MCSCF SELF-CONSISTENT FIELD WAVEFUNCTION
     ----------------------------------------------------------------

          -----------------
          ENERGY COMPONENTS
          -----------------

         WAVEFUNCTION NORMALIZATION =       1.0000000000

                ONE ELECTRON ENERGY =     -41.4515498418
                TWO ELECTRON ENERGY =      17.4191500904
           NUCLEAR REPULSION ENERGY =       6.9807632466
                                      ------------------
                       TOTAL ENERGY =     -17.0516365048

 ELECTRON-ELECTRON POTENTIAL ENERGY =      17.4191500904
  NUCLEUS-ELECTRON POTENTIAL ENERGY =     -54.9087917550
   NUCLEUS-NUCLEUS POTENTIAL ENERGY =       6.9807632466
                                      ------------------
             TOTAL POTENTIAL ENERGY =     -30.5088784180
               TOTAL KINETIC ENERGY =      13.4572419131
                 VIRIAL RATIO (V/T) =       2.2670974197

          ---------------------------------------
          MULLIKEN AND LOWDIN POPULATION ANALYSES
          ---------------------------------------

     ATOMIC MULLIKEN POPULATION IN EACH MOLECULAR ORBITAL

                      1          2          3          4          5

                  1.999103   1.988276   1.974971   1.974896   0.024926

    1             1.892383   1.678006   1.476109   1.173503   0.014348
    2             0.053360   0.155135   0.249431   0.400697   0.005289
    3             0.053360   0.155135   0.249431   0.400697   0.005289

                      6          7          8

                  0.023455   0.011300   0.003072

    1             0.014294   0.010072   0.002727
    2             0.004580   0.000614   0.000173
    3             0.004580   0.000614   0.000173
 WARNING! MCSCF POPULATIONS SHOWN ABOVE ARE FOR THE NATURAL ORBITALS.
 IGNORE THE ABOVE DATA FOR MCSCF FUNCTIONS WHICH ARE NOT OF -FORS- TYPE.
 THE FOLLOWING POPULATIONS ARE CORRECT FOR ANY MCSCF WAVEFUNCTION.

               ----- POPULATIONS IN EACH AO -----
                             MULLIKEN      LOWDIN
              1  O  1  S      1.78794     0.29858
              2  O  1  S     -0.00504     0.17031
              3  O  1  S     -0.15616     0.19346
              4  O  1  X      1.86411     0.87113
              5  O  1  Y      1.43285     0.61239
              6  O  1  Z      1.61787     0.73441
              7  O  1  X      0.01300     0.17112
              8  O  1  Y     -0.17858     0.14163
              9  O  1  Z     -0.02804     0.17706
             10  O  1  X      0.01345     0.32649
             11  O  1  Y     -0.07724     0.26906
             12  O  1  Z     -0.04270     0.30193
             13  O  1 XX      0.00184     0.10496
             14  O  1 YY      0.00130     0.11788
             15  O  1 ZZ      0.00000     0.11101
             16  O  1 XY      0.00150     0.00000
             17  O  1 XZ      0.01017     0.00012
             18  O  1 YZ      0.00000     0.03570
             19  O  1 XX      0.00030     0.11684
             20  O  1 YY      0.00035     0.11391
             21  O  1 ZZ      0.00000     0.11393
             22  O  1 XY      0.00021     0.00000
             23  O  1 XZ      0.00291     0.00010
             24  O  1 YZ      0.00000     0.00235
             25  O  1 XXX     0.00010     0.19354
             26  O  1 YYY     0.00073     0.14457
             27  O  1 ZZZ     0.00001     0.15724
             28  O  1 XXY     0.00008     0.05087
             29  O  1 XXZ     0.00015     0.06801
             30  O  1 YYX     0.00000     0.09069
             31  O  1 YYZ     0.00031     0.10705
             32  O  1 ZZX     0.00000     0.09137
             33  O  1 ZZY     0.00000     0.08879
             34  O  1 XYZ     0.00000     0.00000
             35  H  2  S      0.52763     0.27618
             36  H  2  S      0.20567     0.11611
             37  H  2  S     -0.00183     0.01570
             38  H  2  X      0.01706     0.02806
             39  H  2  Y      0.02540     0.03584
             40  H  2  Z      0.02273     0.03767
             41  H  2  X      0.03195     0.07230
             42  H  2  Y     -0.00878     0.06432
             43  H  2  Z      0.03657     0.08266
             44  H  2 XX      0.00211     0.04902
             45  H  2 YY      0.00208     0.10086
             46  H  2 ZZ      0.00293     0.08430
             47  H  2 XY      0.00142     0.01716
             48  H  2 XZ      0.00433     0.00976
             49  H  2 YZ      0.00000     0.02181
             50  H  3  S      0.52763     0.27618
             51  H  3  S      0.20567     0.11611
             52  H  3  S     -0.00183     0.01570
             53  H  3  X      0.01706     0.02806
             54  H  3  Y      0.02540     0.03584
             55  H  3  Z      0.02273     0.03767
             56  H  3  X      0.03195     0.07230
             57  H  3  Y     -0.00878     0.06432
             58  H  3  Z      0.03657     0.08266
             59  H  3 XX      0.00211     0.04902
             60  H  3 YY      0.00208     0.10086
             61  H  3 ZZ      0.00293     0.08430
             62  H  3 XY      0.00142     0.01716
             63  H  3 XZ      0.00433     0.00976
             64  H  3 YZ      0.00000     0.02181

          ----- MULLIKEN ATOMIC OVERLAP POPULATIONS -----
          (OFF-DIAGONAL ELEMENTS NEED TO BE MULTIPLIED BY 2)

             1           2           3

    1    5.3838073
    2    0.4388177   0.5155673
    3    0.4388177  -0.0851063   0.5155673

          TOTAL MULLIKEN AND LOWDIN ATOMIC POPULATIONS
       ATOM         MULL.POP.    CHARGE          LOW.POP.     CHARGE
    1 O             6.261443   -0.261443         5.976494    0.023506
    2 H             0.869279    0.130721         1.011753   -0.011753
    3 H             0.869279    0.130721         1.011753   -0.011753

          MULLIKEN SPHERICAL HARMONIC POPULATIONS
       ATOM           S       P       D      F      G      H      I    TOTAL
    1 O             1.63    4.61    0.02   0.00   0.00   0.00   0.00    6.26
    2 H             0.73    0.12    0.01   0.00   0.00   0.00   0.00    0.87
    3 H             0.73    0.12    0.01   0.00   0.00   0.00   0.00    0.87

          ---------------------
          ELECTROSTATIC MOMENTS
          ---------------------

 POINT   1           X           Y           Z (BOHR)    CHARGE
                -0.000000    0.000000    0.123987       -0.00 (A.U.)
         DX          DY          DZ         /D/  (DEBYE)
    -0.000000   -0.000000    1.920835    1.920835
 ...... END OF PROPERTY EVALUATION ......
 CPU     0: STEP CPU TIME=     0.02 TOTAL CPU TIME=        0.5 (    0.0 MIN)
 TOTAL WALL CLOCK TIME=        1.2 SECONDS, CPU UTILIZATION IS  41.18%
                580000  WORDS OF DYNAMIC MEMORY USED
 EXECUTION OF GAMESS TERMINATED NORMALLY Wed May 18 22:17:23 2016
 DDI: 263624 bytes (0.3 MB / 0 MWords) used by master data server.

 ----------------------------------------
 CPU timing information for all processes
 ========================================
 0: 0.402 + 0.94 = 0.496
 1: 0.296 + 0.55 = 0.352
 2: 0.365 + 0.73 = 0.439
 3: 0.363 + 0.66 = 0.430
 4: 0.376 + 0.71 = 0.448
 5: 0.353 + 0.73 = 0.426
 6: 0.334 + 0.52 = 0.386
 7: 0.342 + 0.73 = 0.415
 8: 0.357 + 0.79 = 0.437
 9: 0.341 + 0.48 = 0.389
 10: 0.317 + 0.65 = 0.383
 11: 0.342 + 0.71 = 0.414
 12: 0.355 + 0.80 = 0.435
 13: 0.346 + 0.62 = 0.409
 14: 0.344 + 0.54 = 0.398
 15: 0.349 + 0.47 = 0.397
 ----------------------------------------
 ddikick.x: exited gracefully.
----- accounting info -----
Files used on the master node Kylin were:
-rw-r--r-- 1 yyang173 yyang173   62153 May 18 22:17 /scr/yyang173/h2o.cas.F05
-rw-rw-r-- 1 yyang173 yyang173 6480576 May 18 22:17 /scr/yyang173/h2o.cas.F08
-rw-rw-r-- 1 yyang173 yyang173 6480576 May 18 22:17 /scr/yyang173/h2o.cas.F08.001
-rw-rw-r-- 1 yyang173 yyang173 6480576 May 18 22:17 /scr/yyang173/h2o.cas.F08.002
-rw-rw-r-- 1 yyang173 yyang173 6480576 May 18 22:17 /scr/yyang173/h2o.cas.F08.003
-rw-rw-r-- 1 yyang173 yyang173 6480576 May 18 22:17 /scr/yyang173/h2o.cas.F08.004
-rw-rw-r-- 1 yyang173 yyang173 6480576 May 18 22:17 /scr/yyang173/h2o.cas.F08.005
-rw-rw-r-- 1 yyang173 yyang173 6480576 May 18 22:17 /scr/yyang173/h2o.cas.F08.006
-rw-rw-r-- 1 yyang173 yyang173 6480576 May 18 22:17 /scr/yyang173/h2o.cas.F08.007
-rw-rw-r-- 1 yyang173 yyang173 6480576 May 18 22:17 /scr/yyang173/h2o.cas.F08.008
-rw-rw-r-- 1 yyang173 yyang173 6480576 May 18 22:17 /scr/yyang173/h2o.cas.F08.009
-rw-rw-r-- 1 yyang173 yyang173 6480576 May 18 22:17 /scr/yyang173/h2o.cas.F08.010
-rw-rw-r-- 1 yyang173 yyang173 6480576 May 18 22:17 /scr/yyang173/h2o.cas.F08.011
-rw-rw-r-- 1 yyang173 yyang173 6480576 May 18 22:17 /scr/yyang173/h2o.cas.F08.012
-rw-rw-r-- 1 yyang173 yyang173 6480576 May 18 22:17 /scr/yyang173/h2o.cas.F08.013
-rw-rw-r-- 1 yyang173 yyang173 6480576 May 18 22:17 /scr/yyang173/h2o.cas.F08.014
-rw-rw-r-- 1 yyang173 yyang173 6480576 May 18 22:17 /scr/yyang173/h2o.cas.F08.015
-rw-rw-r-- 1 yyang173 yyang173  196664 May 18 22:17 /scr/yyang173/h2o.cas.F09
-rw-rw-r-- 1 yyang173 yyang173  180016 May 18 22:17 /scr/yyang173/h2o.cas.F09.001
-rw-rw-r-- 1 yyang173 yyang173  180016 May 18 22:17 /scr/yyang173/h2o.cas.F09.002
-rw-rw-r-- 1 yyang173 yyang173  180016 May 18 22:17 /scr/yyang173/h2o.cas.F09.003
-rw-rw-r-- 1 yyang173 yyang173  180016 May 18 22:17 /scr/yyang173/h2o.cas.F09.004
-rw-rw-r-- 1 yyang173 yyang173  180016 May 18 22:17 /scr/yyang173/h2o.cas.F09.005
-rw-rw-r-- 1 yyang173 yyang173  180016 May 18 22:17 /scr/yyang173/h2o.cas.F09.006
-rw-rw-r-- 1 yyang173 yyang173  180016 May 18 22:17 /scr/yyang173/h2o.cas.F09.007
-rw-rw-r-- 1 yyang173 yyang173  180016 May 18 22:17 /scr/yyang173/h2o.cas.F09.008
-rw-rw-r-- 1 yyang173 yyang173  180016 May 18 22:17 /scr/yyang173/h2o.cas.F09.009
-rw-rw-r-- 1 yyang173 yyang173  180016 May 18 22:17 /scr/yyang173/h2o.cas.F09.010
-rw-rw-r-- 1 yyang173 yyang173  180016 May 18 22:17 /scr/yyang173/h2o.cas.F09.011
-rw-rw-r-- 1 yyang173 yyang173  180016 May 18 22:17 /scr/yyang173/h2o.cas.F09.012
-rw-rw-r-- 1 yyang173 yyang173  180016 May 18 22:17 /scr/yyang173/h2o.cas.F09.013
-rw-rw-r-- 1 yyang173 yyang173  180016 May 18 22:17 /scr/yyang173/h2o.cas.F09.014
-rw-rw-r-- 1 yyang173 yyang173  180016 May 18 22:17 /scr/yyang173/h2o.cas.F09.015
-rw-rw-r-- 1 yyang173 yyang173 2846640 May 18 22:17 /scr/yyang173/h2o.cas.F10
-rw-rw-r-- 1 yyang173 yyang173    9904 May 18 22:17 /scr/yyang173/h2o.cas.F12
-rw-rw-r-- 1 yyang173 yyang173  416480 May 18 22:17 /scr/yyang173/h2o.cas.F13
-rw-rw-r-- 1 yyang173 yyang173  416480 May 18 22:17 /scr/yyang173/h2o.cas.F13.001
-rw-rw-r-- 1 yyang173 yyang173  416480 May 18 22:17 /scr/yyang173/h2o.cas.F13.002
-rw-rw-r-- 1 yyang173 yyang173  416480 May 18 22:17 /scr/yyang173/h2o.cas.F13.003
-rw-rw-r-- 1 yyang173 yyang173  416480 May 18 22:17 /scr/yyang173/h2o.cas.F13.004
-rw-rw-r-- 1 yyang173 yyang173  416480 May 18 22:17 /scr/yyang173/h2o.cas.F13.005
-rw-rw-r-- 1 yyang173 yyang173  416480 May 18 22:17 /scr/yyang173/h2o.cas.F13.006
-rw-rw-r-- 1 yyang173 yyang173  416480 May 18 22:17 /scr/yyang173/h2o.cas.F13.007
-rw-rw-r-- 1 yyang173 yyang173  416480 May 18 22:17 /scr/yyang173/h2o.cas.F13.008
-rw-rw-r-- 1 yyang173 yyang173  416480 May 18 22:17 /scr/yyang173/h2o.cas.F13.009
-rw-rw-r-- 1 yyang173 yyang173  416480 May 18 22:17 /scr/yyang173/h2o.cas.F13.010
-rw-rw-r-- 1 yyang173 yyang173  416480 May 18 22:17 /scr/yyang173/h2o.cas.F13.011
-rw-rw-r-- 1 yyang173 yyang173  416480 May 18 22:17 /scr/yyang173/h2o.cas.F13.012
-rw-rw-r-- 1 yyang173 yyang173  416480 May 18 22:17 /scr/yyang173/h2o.cas.F13.013
-rw-rw-r-- 1 yyang173 yyang173  416480 May 18 22:17 /scr/yyang173/h2o.cas.F13.014
-rw-rw-r-- 1 yyang173 yyang173  416480 May 18 22:17 /scr/yyang173/h2o.cas.F13.015
-rw-rw-r-- 1 yyang173 yyang173  180312 May 18 22:17 /scr/yyang173/h2o.cas.F15
-rw-rw-r-- 1 yyang173 yyang173       0 May 18 22:17 /scr/yyang173/h2o.cas.F23
Wed May 18 22:17:27 CDT 2016
0.238u 0.152s 0:04.79 7.9%	0+0k 0+152io 0pf+0w
