  Input file(s): dmc.g000.twistnum_0.in.xml dmc.g001.twistnum_1.in.xml dmc.g002.twistnum_2.in.xml dmc.g003.twistnum_3.in.xml 

=====================================================
                    QMCPACK 3.11.9

       (c) Copyright 2003-  QMCPACK developers

                    Please cite:
 J. Kim et al. J. Phys. Cond. Mat. 30 195901 (2018)
      https://doi.org/10.1088/1361-648X/aab9c3

  Git branch: develop
  Last git commit: 3f2d934734d48fba2af177e61e6b39d844e0bf1b
  Last git commit date: Wed Dec 1 21:17:16 2021 -0600
  Last git commit subject: Merge pull request #3635 from QMCPACK/fix_He_test
=====================================================
  Global options 

  Total number of MPI ranks = 4
  Number of MPI groups      = 4
  MPI group ID              = 2
  Number of ranks in group  = 1
  MPI ranks per node        = 4
  OMP 1st level threads     = 8
  OMP nested threading disabled or only 1 thread on the 2nd level

  Precision used in this calculation, see definitions in the manual:
  Base precision      = double
  Full precision      = double

  CPU only build
  Timer build option is enabled. Current timer level is coarse

  Input XML = dmc.g002.twistnum_2.in.xml

  Project = dmc
  date    = 2021-12-17 13:12:37 EST
  host    = WorkshopVBX

  hamiltonian has MPC. Will read density if it is found.


 Random Number
 -------------
  Offset for the random number seeds based on time: 789

  Range of prime numbers to use as seeds over processors and threads = 6067-6323


 Lattice
 -------
  Simulation cell radius   = 1.947495 bohr
  Wigner-Seitz cell radius = 2.385185 bohr

  Lattice (bohr):      3.3731611500      3.3731611500     -0.0000000000
                       0.0000000000      3.3731611500      3.3731611500
                       3.3731611500      0.0000000000      3.3731611500

  Boundary Conditions:  p  p  p 

  Volume (bohr^3) = 76.7611133056

  Reciprocal vectors without 2*pi.
    g_1 =       0.1482289098      0.1482289098     -0.1482289098
    g_2 =      -0.1482289098      0.1482289098      0.1482289098
    g_3 =       0.1482289098     -0.1482289098      0.1482289098

  Metric tensor in real-space.
    h_1 = 22.7564322877 11.3782161439 11.3782161439 
    h_2 = 11.3782161439 22.7564322877 11.3782161439 
    h_3 = 11.3782161439 11.3782161439 22.7564322877 

  Metric tensor in g-space.
    h_1 = 2.6022368383 -0.8674122794 -0.8674122794 
    h_2 = -0.8674122794 2.6022368383 -0.8674122794 
    h_3 = -0.8674122794 -0.8674122794 2.6022368383 

 Particle Set
 ------------
  Name: e   Offload : 

  Initializing the lattice by the global supercell
  All the species have the same mass 1.0000000000
  Long-range breakup parameters:
    rc*kc = 15.0000000000; rc = 1.9474954980; kc = 7.7022000901; tol = 0.0003000000

  Creating Structure Factor for periodic systems 7.7022000901
  KContainer initialised with cutoff 7.7022000901
   # of K-shell  = 25
   # of K points = 608

  Particle set size: 8


 Particle Set
 ------------
  Name: ion0   Offload : 

  Initializing the lattice by the global supercell
  All the species have the same mass 21894.7135906000
  Long-range breakup parameters:
    rc*kc = 15.0000000000; rc = 1.9474954980; kc = 7.7022000901; tol = 0.0003000000

  Creating Structure Factor for periodic systems 7.7022000901
  KContainer initialised with cutoff 7.7022000901
   # of K-shell  = 25
   # of K points = 608

  Particle set size: 2


 Many-body wavefunction
 -------------------
  Name: psi0   Tasking: no


   Single particle orbitals (SPO) collection
   -----------------------------------------
    Name: bspline   Type input: bspline

  Created SPOSet builder named 'bspline' of type bspline

     Single particle orbitals (SPO)
     ------------------------------
      Name: spo_ud   Type: spline   Builder class name: EinsplineSetBuilder

  TileMatrix = 
 [  1  0  0
    0  1  0
    0  0  1 ]
  Reading 4 orbitals from HDF5 file.
  HDF5 orbital file version 2.1.0
  Reading orbital file in ESHDF format.
  ESHDF orbital file version 2.1.0
  Lattice = 
    [  3.373161  3.373161  0.000000
       0.000000  3.373161  3.373161
       3.373161  0.000000  3.373161 ]
  SuperLattice = 
    [  3.373161  3.373161  0.000000
       0.000000  3.373161  3.373161
       3.373161  0.000000  3.373161 ]
bands=4, elecs=8, spins=1, twists=4, muffin tins=0, core states=0
atomic orbital=0
Atom type(0) = 6
Atom type(1) = 6
  Read 29363 density G-vectors.
  EinsplineSetBuilder found density in the HDF5 file.
  Read 0 VHXC G-vectors.
TIMER  EinsplineSetBuilder::ReadOrbitalInfo 0.0255533920
TIMER  EinsplineSetBuilder::BroadcastOrbitalInfo 0.0000005900
Found 4 distinct supercell twists.
number of things
4
4
Super twist #0:  [   0.00000   0.00000   0.00000 ]
Super twist #1:  [   0.50000   0.00000   0.00000 ]
Super twist #2:  [   0.00000   0.50000   0.00000 ]
Super twist #3:  [   0.50000   0.50000   0.00000 ]
  Using supercell twist 2:  [   0.00000   0.50000   0.00000]
4 complex-valued orbitals supplied by h5 can be expanded up to 4 SPOs.
Sorting the bands now:
We will read 4 distinct complex-valued orbitals from h5.
There are 0 core states and 4 valence states.
    Using complex valued spline SPOs with complex single precision storage (C2C).
    Running on CPU.
BandInfoGroup::selectBands bigspace has 4 distinct orbitals 
BandInfoGroup::selectBands using distinct orbitals [0,4)
  Number of distinct bands 4
  First Band index 0
  First SPO index 0
  Size of SPOs 4
  ClassName = SplineC2C
  Using complex einspline table
NumDistinctOrbitals 4 numOrbs = 4
B-spline mesh factor is 1.0000000000
B-spline mesh size is (44, 44, 40)
Maxmimum number of Gvecs 3992
  Using meshsize=                44                44                40
  vs input meshsize=                44                44                40
MEMORY 2 MB allocated for the coefficients in 3D spline orbital representation
Start transforming plane waves to 3D B-Splines.
  Time to gather the table = 0.0000049750
  Time to bcast the table = 0.0000002280
  SplineSetReader initialize_spline_pio 0.4358357950 sec
Time spent in creating B-spline SPOs 0.4434266620sec

   Single Slater determinant
   -------------------------

     Determinant
     -----------
      Name: updet   Spin group: 0   SPO name: spo_ud

      Setting delay_rank to default value 1
      Using rank-1 Sherman-Morrison Fahy update (SM1)
      Running on CPU.


     Determinant
     -----------
      Name: downdet   Spin group: 1   SPO name: spo_ud

      Setting delay_rank to default value 1
      Using rank-1 Sherman-Morrison Fahy update (SM1)
      Running on CPU.

  Added a fermionic WaveFunctionComponent SlaterDet

   Jastrow
   -------
    Name: J2   Type: Two-Body   Function: bspline

    Radial function for species: u - u
     Number of parameters: 8
     Cusp: -0.2500000000
     Cutoff radius: 2.3851851232

     Name                        Value Type Recompute Use Index
     ---- ---------------------------- ---- --------- --- -----
     uu_0  (2.576630e-01,0.000000e+00)    1         1  ON     0
     uu_1  (1.796686e-01,0.000000e+00)    1         1  ON     1
     uu_2  (1.326654e-01,0.000000e+00)    1         1  ON     2
     uu_3  (9.407181e-02,0.000000e+00)    1         1  ON     3
     uu_4  (6.267013e-02,0.000000e+00)    1         1  ON     4
     uu_5  (3.899100e-02,0.000000e+00)    1         1  ON     5
     uu_6  (2.070236e-02,0.000000e+00)    1         1  ON     6
     uu_7  (9.229776e-03,0.000000e+00)    1         1  ON     7

    Radial function for species: u - d
     Number of parameters: 8
     Cusp: -0.5
     Cutoff radius: 2.38519

     Name                        Value Type Recompute Use Index
     ---- ---------------------------- ---- --------- --- -----
     ud_0  (4.385892e-01,0.000000e+00)    1         1  ON     0
     ud_1  (3.212399e-01,0.000000e+00)    1         1  ON     1
     ud_2  (2.275448e-01,0.000000e+00)    1         1  ON     2
     ud_3  (1.558506e-01,0.000000e+00)    1         1  ON     3
     ud_4  (1.009589e-01,0.000000e+00)    1         1  ON     4
     ud_5  (6.108434e-02,0.000000e+00)    1         1  ON     5
     ud_6  (3.154274e-02,0.000000e+00)    1         1  ON     6
     ud_7  (1.389486e-02,0.000000e+00)    1         1  ON     7

  QMCHamiltonian::addOperator Kinetic to H, physical Hamiltonian 

 Hamiltonian and observables
 ---------------------------
  Name: h0


  Creating CoulombHandler with the Esler Optimized Breakup. 
  KContainer initialised with cutoff 44.3528
   # of K-shell  = 759
   # of K points = 113394

  NUMBER OF OPT_BREAK KVECS = 37906580313
 finding kc:  7.7022 , 7.7022
  LRBreakp parameter Kc =7.7022
    Continuum approximation in k = [44.3528,3080.88)

   LR Breakup chi^2 = 1.13641e-15
   PBCAA self-interaction term -6.2993
   PBCAA total constant -6.9387
  Maximum K shell 24
  Number of k vectors 608
  Fixed Coulomb potential for e
    e-e Madelung Const. =-0.32981
    Vtot     =0
  QMCHamiltonian::addOperator ElecElec to H, physical Hamiltonian 
QMCHamiltonian::addOperatorType added type coulomb named ElecElec
  Clone CoulombHandler. 
   PBCAA self-interaction term -25.197
   PBCAA total constant -25.837
Checking ion-ion Ewald energy against reference...
  Check passed.
  Maximum K shell 24
  Number of k vectors 608
  Fixed Coulomb potential for ion0
    e-e Madelung Const. =-0.32981
    Vtot     =-12.776
  QMCHamiltonian::addOperator IonIon to H, physical Hamiltonian 
QMCHamiltonian::addOperatorType added type coulomb named IonIon

  ECPotential builder for pseudopotential 

  Adding pseudopotential for C
   Linear grid  ri=0 rf=10 npts = 10001
    ECPComponentBuilder::buildSemiLocalAndLocal 
WARNING Nrule was not determined from qmcpack input or pseudopotential file. Setting sensible default.
    Assuming Hartree unit
   Number of angular momentum channels 2
   Maximum angular momentum channel 1
   Creating a Linear Grid Rmax=1.7
  Using global grid with delta = 0.001
   Making L=1 a local potential with a radial cutoff of 9.999
  Quadrature Nrule: 4
    Non-local pseudopotential parameters
    Maximum angular mementum = 0
    Number of non-local channels = 1
       l(0)=0
    Cutoff radius = 1.7
    Spherical grids and weights: 
                        1                 0                 0       0.08333333333
                       -1   1.224646799e-16                 0       0.08333333333
             0.4472135955       0.894427191                 0       0.08333333333
            -0.4472135955      0.7236067977      0.5257311121       0.08333333333
             0.4472135955      0.2763932023      0.8506508084       0.08333333333
            -0.4472135955     -0.2763932023      0.8506508084       0.08333333333
             0.4472135955     -0.7236067977      0.5257311121       0.08333333333
            -0.4472135955      -0.894427191   1.095357397e-16       0.08333333333
             0.4472135955     -0.7236067977     -0.5257311121       0.08333333333
            -0.4472135955     -0.2763932023     -0.8506508084       0.08333333333
             0.4472135955      0.2763932023     -0.8506508084       0.08333333333
            -0.4472135955      0.7236067977     -0.5257311121       0.08333333333
    Maximum cutoff radius 1.7
  Clone CoulombHandler. 
   Constant of PBCAB 1.278730019
  Rcut                1.947495498
  Maximum K shell     24
  Number of k vectors 608
    CoulombPBCAB::add 
 Setting a linear grid=[0,1.947495498) number of grid =1948
    Creating the short-range pseudopotential for species 0
  QMCHamiltonian::addOperator LocalECP to H, physical Hamiltonian 

  Using NonLocalECP potential 
    Maximum grid on a sphere for NonLocalECPotential: 12
  QMCHamiltonian::addOperator NonLocalECP to H, physical Hamiltonian 
QMCHamiltonian::addOperatorType added type pseudo named PseudoPot

  === Initializing MPC interaction === 
  Using 609 G-vectors for MPC interaction.
   Using real-space box of size [20,20,20] for MPC spline.
    Linear extrap    = 4.733389420197e-01
    Quadratic extrap = 4.733389419372e-01
    Worst MPC discrepancy:
      Linear Extrap   : -9.98876324296009e-05
      Quadratic Extrap: -9.98878520817298e-05
  Constant potential = 1.836620918964e+01
  === MPC interaction initialized === 

  QMCHamiltonian::addOperator MPC to auxH 
QMCHamiltonian::addOperatorType added type MPC named MPC
  Adding SpinDensity
  QMCHamiltonian::addOperator SpinDensity to auxH 
QMCHamiltonian::addOperatorType added type spindensity named SpinDensity
  QMCHamiltonian::addOperator KEcorr to auxH 
QMCHamiltonian::addOperatorType added type chiesa named KEcorr

  QMCHamiltonian::add2WalkerProperty added
    7 to P::PropertyList 
    54 to P::Collectables 
    starting Index of the observables in P::PropertyList = 9
ParticleSetPool::randomize 0 ParticleSets.
  Initialization Execution time = 2.6807e+00 secs
=========================================================
 Summary of QMC systems 
=========================================================
ParticleSetPool has: 

  ParticleSet 'e' contains 8 particles :  u(4) d(4)

    u  4.5959016652e+00  5.3020495529e+00  5.2694187045e+00
    u  1.4388255263e+00  3.8687752405e+00  2.7869721032e+00
    u  3.5671701856e+00  5.8466371461e+00  3.4186857494e+00
    u  6.1992757415e+00  5.5123725562e+00  5.0252887408e+00
    d  4.2050521527e+00  3.8550613409e+00  4.2822749470e+00
    d  3.4241119858e+00  1.7662236108e+00  2.7399909240e+00
    d  4.6962786508e+00  3.0805528312e+00  4.4830095996e+00
    d  2.0451959282e+00  3.0855684703e+00  3.7040130731e+00

  Distance table for similar particles (A-A):
    source/target: e
    Using structure-of-arrays (SoA) data layout
    Distance computations use general periodic cell in 3D with corner image checks.

  Distance table for dissimilar particles (A-B):
    source: ion0  target: e
    Using structure-of-arrays (SoA) data layout
    Distance computations use general periodic cell in 3D with corner image checks.


  ParticleSet 'ion0' contains 2 particles :  C(2)

    C  0.0000000000e+00  0.0000000000e+00  0.0000000000e+00
    C  1.6865805800e+00  1.6865805800e+00  1.6865805700e+00

  Distance table for similar particles (A-A):
    source/target: ion0
    Using structure-of-arrays (SoA) data layout
    Distance computations use general periodic cell in 3D with corner image checks.


  Hamiltonian h0
  Kinetic         Kinetic energy
  ElecElec        CoulombPBCAA potential: e_e
  IonIon          CoulombPBCAA potential: ion0_ion0
  LocalECP        CoulombPBCAB potential source: ion0
  NonLocalECP     NonLocalECPotential: ion0


=========================================================
  Start VMC
  File Root dmc.g002.s000 append = no 
=========================================================
Resetting walkers
  Adding 8 walkers to 0 existing sets
  Total number of walkers: 8.0000000000e+00
  Total weight: 8.0000000000e+00
  Resetting Properties of the walkers 1 x 16

<vmc function="put">
  qmc_counter=0  my_counter=0
  time step      = 3.0000000000e-01
  blocks         = 10
  steps          = 26
  substeps       = 3
  current        = 0
  target samples = 2.0480000000e+03
  walkers/mpi    = 8

  stepsbetweensamples = 1
<parameter name="blocks">10</parameter>
<parameter name="blocks_between_recompute">0</parameter>
<parameter name="check_properties">100</parameter>
<parameter name="checkproperties">100</parameter>
<parameter name="current">0</parameter>
<parameter name="dmcwalkersperthread">2.5600000000e+02</parameter>
<parameter name="max_seconds">360000</parameter>
<parameter name="maxcpusecs">360000</parameter>
<parameter name="record_configs">0</parameter>
<parameter name="record_walkers">1</parameter>
<parameter name="recordconfigs">0</parameter>
<parameter name="recordwalkers">1</parameter>
<parameter name="samples">2.0480000000e+03</parameter>
<parameter name="samplesperthread">2.5600000000e+02</parameter>
<parameter name="spinmass">1.0000000000e+00</parameter>
<parameter name="steps">26</parameter>
<parameter name="stepsbetweensamples">1</parameter>
<parameter name="store_configs">0</parameter>
<parameter name="storeconfigs">0</parameter>
<parameter name="sub_steps">3</parameter>
<parameter name="substeps">3</parameter>
<parameter name="tau">3.0000000000e-01</parameter>
<parameter name="time_step">3.0000000000e-01</parameter>
<parameter name="timestep">3.0000000000e-01</parameter>
<parameter name="use_drift">yes</parameter>
<parameter name="usedrift">yes</parameter>
<parameter name="walkers">8</parameter>
<parameter name="warmup_steps">8</parameter>
<parameter name="warmupsteps">8</parameter>
  DumpConfig==false Nothing (configurations, state) will be saved.
  Walker Samples are dumped every 1 steps.
</vmc>
  Set drift_modifier UNR parameter a = 1.0000000000e+00
  Adding a default LocalEnergyEstimator for the MainEstimator 
  Using CollectablesEstimator for collectables, e.g. sk, gofr, density 
  CloneManager::makeClones makes 8 clones for W/Psi/H.
  Cloning methods for both Psi and H are used
=========================================================
--- Memory usage report : Memory Usage before cloning ---
=========================================================
Available memory on node 0, free + buffers :    2226 MiB
Memory footprint by rank 0 on node 0       :     560 MiB
=========================================================
========================================================
--- Memory usage report : Memory Usage after cloning ---
========================================================
Available memory on node 0, free + buffers :    2223 MiB
Memory footprint by rank 0 on node 0       :     560 MiB
========================================================
  Initial partition of walkers 0 1 2 3 4 5 6 7 8 

  Using Particle by Particle moves
  Walker moves with drift
  Total Sample Size   =2048
  Walker distribution on root = 0 1 2 3 4 5 6 7 8 
  Using Locality Approximation
========================================================================
--- Memory usage report : Memory Usage after the buffer registration ---
========================================================================
Available memory on node 0, free + buffers :    2217 MiB
Memory footprint by rank 0 on node 0       :     560 MiB
========================================================================
  Anonymous Buffer size per walker : 20128 Bytes.
MEMORY increase 0 MB VMC::resetRun
====================================================
  SimpleFixedNodeBranch::finalize after a VMC block
    QMC counter        = 0
    time step          = 0.3
    reference energy   = -11.525
    reference variance = 0.321637
====================================================
  QMC Execution time = 9.6358e-01 secs
BRANCH resetRun
 SimpleFixedNodeBranch::resetRun detected changes in <parameter>'s 
 BranchMode : 0000001100 0000001100
 iParam (old):                  8                 1                 0              2048                 8                 8                 1                 0
 iParam (new):                 80                 1                 0              2048                 8                 8                 1                 0
 vParam (old):   3.0000000000e-01  3.0000000000e-01 -1.1524960080e+01 -1.1524960080e+01  1.0000000000e+00  1.0000000000e+00  1.0000000000e+00  1.0000000000e+00  3.2163736780e-01 -1.1524960080e+01  1.0000000000e+00  1.0000000000e+00  1.0000000000e+01  1.0000000000e+00  1.0000000000e+00  1.0000000000e+00  1.0000000000e+00
 vParam (new):   5.0000000000e-03  3.0000000000e-01 -1.1524960080e+01 -1.1524960080e+01  1.0000000000e+00  1.0000000000e+00  1.0000000000e+00  1.0000000000e+00  3.2163736780e-01 -1.1524960080e+01  1.0000000000e+00  1.0000000000e+00  1.0000000000e+01  1.0000000000e+00  1.0000000000e+00  1.0000000000e+00  1.0000000000e+00

=========================================================
  Start DMC
  File Root dmc.g002.s001 append = no 
=========================================================
Using existing walkers 
  Resetting Properties of the walkers 1 x 16
  Set drift_modifier UNR parameter a = 1.0000000000e+00
  Cannot make clones again. Use existing 8 clones
  Total number of walkers: 2.0480000000e+03
  Total weight: 2.0480000000e+03
  Creating WalkerController: target  number of walkers = 2048
  Using WalkerControlBase for dynamic population control.
  START ALL OVER 
  WalkerControlBase parameters 
    maxCopy = 2
    Max Walkers per MPI rank 4097
    Min Walkers per MPI rank 410
    Using non-blocking send/recv
  QMC counter      = 1
  time step        = 5.0000000000e-03
  effective time step = 5.0000000000e-03
  trial energy     = -1.1524960080e+01
  reference energy = -1.1524960080e+01
  Feedback = 1.0000000000e+00
  reference variance = 3.2163736780e-01
  target walkers = 2048
  branching cutoff scheme classic
  branch cutoff = 5.0000000000e+01 7.5000000000e+01
  Max and minimum walkers per node= 4097 410
  QMC Status (BranchMode) = 0000001101
Using DMCUpdatePbyPWithRejectionFast
  Initial partition of walkers on a node: 0 256 512 768 1024 1280 1536 1792 2048 
  Updates by particle-by-particle moves
  DMC moves are rejected when a node crossing is detected
  Using Locality Approximation
========================================================================
--- Memory usage report : Memory Usage after the buffer registration ---
========================================================================
Available memory on node 0, free + buffers :    1925 MiB
Memory footprint by rank 0 on node 0       :     560 MiB
========================================================================
SimpleFixedNodeBranch::checkParameters 
  Average Energy of a population  = -11.525
  Energy Variance = 0.321637

  Fluctuating population
  Persistent walkers are killed after 1 MC sweeps
  BranchInterval = 1
  Steps per block = 4
  Number of blocks = 200

  DMC Engine Initialization = 7.8856388300e-01 secs

 Warmup is completed after 80

  TauEff     = 4.9872606225e-03
 TauEff/Tau = 9.9745212451e-01
  Etrial     = -1.1277850870e+01
 Running average of energy = -1.1565751063e+01
                  Variance = 3.1340475319e-01
branch cutoff = 1.0000000000e+01 1.5000000000e+01
====================================================
  SimpleFixedNodeBranch::finalize after a DMC block
    QMC counter                   = 1
    time step                     = 0.005
    effective time step           = 0.00498697
    trial energy                  = -11.6007
    reference energy              = -11.5905
    reference variance            = 0.313405
    target walkers                = 2048
    branch cutoff                 = 10 15
    Max and minimum walkers per node= 4097 410
    Feedback                      = 1
    QMC Status (BranchMode)       = 0000001111
====================================================
  QMC Execution time = 7.2248e+02 secs
  Total Execution time = 7.2345e+02 secs

=========================================================
  A new xml input file : dmc.g002.s001.cont.xml

Use --enable-timers=<value> command line option to increase or decrease level of timing information
Stack timer profile
Timer      Inclusive_time  Exclusive_time  Calls       Time_per_call
Total       726.2172     0.0002              1     726.217248868
  DMC       722.4805   722.4805              1     722.480525862
  Startup     2.7722     2.7722              1       2.772221866
  VMC         0.9643     0.9643              1       0.964337027
