  Input file(s): qmc_ref-MD-H_Ground.in.xml 

=====================================================
                    QMCPACK 3.16.9

       (c) Copyright 2003-  QMCPACK developers

                    Please cite:
 J. Kim et al. J. Phys. Cond. Mat. 30 195901 (2018)
      https://doi.org/10.1088/1361-648X/aab9c3
=====================================================
  Global options 

  Built without MPI. Running in serial or with OMP threads.

  Total number of MPI ranks = 1
  Number of MPI groups      = 1
  MPI group ID              = 0
  Number of ranks in group  = 1
  MPI ranks per node        = 1
  OMP 1st level threads     = 16
  OMP nested threading disabled or only 1 thread on the 2nd level

  Precision used in this calculation, see definitions in the manual:
  Base precision      = double
  Full precision      = double

  CPU only build
  Real build. QMC_COMPLEX=OFF
  Timer build option is enabled. Current timer level is coarse

=================================================
--- Memory usage report : when QMCPACK starts ---
=================================================
Available memory on node 0, free + buffers :   49473 MiB
Memory footprint by rank 0 on node 0       :      16 MiB
=================================================

  Input XML = qmc_ref-MD-H_Ground.in.xml

  Project = qmc_ref-MD-H_Ground
  date    = 2023-06-01 17:05:27 CDT
  host    = c364566l


 Random Number
 -------------
  Offset for the random number seeds based on time: 551

  Range of prime numbers to use as seeds over processors and threads = 4007-4133


 Particle Set
 ------------
  Name: ion0   Offload : no

  All the species have the same mass 1
  Particle set size: 1   Groups : 1


 Particle Set
 ------------
  Name: e   Offload : no

  All the species have the same mass 1
  Particle set size: 3   Groups : 3


 Many-body wavefunction
 -------------------
  Name: psi0   Tasking: no


   Single particle orbitals (SPO) collection
   -----------------------------------------
    Name: PositronOrbital   Type input: MolecularOrbital

  LCAO: SoaAtomicBasisSet<MultiQuintic,1>
Reading BasisSet from HDF5 file:positron_H_wpos.h5
<input node="atomicBasisSet" name="H" expandYlm="natural" angular="spherical" elementType="H" normalized="no" type="Numerical" expM="1" />
  AO BasisSet for H
   Spherical Harmonics contain (-1)^m factor
   Angular momentum m expanded as -l, ... ,l
   Grid is created by the input parameters in h5
    Using log grid ri = 1e-06 rf = 100 npts = 1001
   R(n,l,m,s) 0 0 0 0
   R(n,l,m,s) 1 0 0 0
   R(n,l,m,s) 2 0 0 0
   R(n,l,m,s) 3 0 0 0
   R(n,l,m,s) 4 0 0 0
Expanding Ylm as -l,-l+1,...,l-1,l
   Adding 1 spherical orbitals
   Adding 1 spherical orbitals
   Adding 1 spherical orbitals
   Adding 1 spherical orbitals
   Adding 1 spherical orbitals
  Setting cutoff radius 37910.2

   Maximum Angular Momentum  = 0
   Number of Radial functors = 5
   Basis size                = 5

  Created SPOSet builder named 'PositronOrbital' of type molecularorbital

     Single particle orbitals (SPO)
     ------------------------------
      Name: spo2   Type: LCAO   Builder class name: LCAOrbitalBuilder

        Using cusp correction.
  Cusp correction file spo2.cuspInfo.xml exits.
Reading cusp info from : spo2.cuspInfo.xml
Found precomputed cusp data for spo set: spo2

   Single particle orbitals (SPO) collection
   -----------------------------------------
    Name: ElectronOrbital   Type input: MolecularOrbital

  LCAO: SoaAtomicBasisSet<MultiQuintic,1>
Reading BasisSet from HDF5 file:electron_H_wpos.h5
<input node="atomicBasisSet" name="H" expandYlm="natural" angular="spherical" elementType="H" normalized="no" type="Numerical" expM="1" />
  AO BasisSet for H
   Spherical Harmonics contain (-1)^m factor
   Angular momentum m expanded as -l, ... ,l
   Grid is created by the input parameters in h5
    Using log grid ri = 1e-06 rf = 100 npts = 1001
   R(n,l,m,s) 0 0 0 0
   R(n,l,m,s) 1 0 0 0
   R(n,l,m,s) 2 0 0 0
   R(n,l,m,s) 3 0 0 0
   R(n,l,m,s) 4 0 0 0
Expanding Ylm as -l,-l+1,...,l-1,l
   Adding 1 spherical orbitals
   Adding 1 spherical orbitals
   Adding 1 spherical orbitals
   Adding 1 spherical orbitals
   Adding 1 spherical orbitals
  Setting cutoff radius 37910.2

   Maximum Angular Momentum  = 0
   Number of Radial functors = 5
   Basis size                = 5

  Created SPOSet builder named 'ElectronOrbital' of type molecularorbital

     Single particle orbitals (SPO)
     ------------------------------
      Name: spo0   Type: LCAO   Builder class name: LCAOrbitalBuilder

        Using cusp correction.
  Cusp correction file spo0.cuspInfo.xml exits.
Reading cusp info from : spo0.cuspInfo.xml
Found precomputed cusp data for spo set: spo0

   Multi Slater determinants
   -------------------------

    Using Bryan's table method.
    Using the table method with precomputing. Faster
Found Multideterminants in H5 File
Found determinant list. 
  H5 code path implicitly assumes NC0 = NC1 = ...  = 0
NE0 = 1, NE1 = 1, NE2 = 1, 
Reading CI expansion from HDF5:Multidet_H_wpos.h5
 Done reading 45 CIs from H5!
 Sorting unique CIs
 Done Sorting unique CIs
Found 45 terms in the MSD expansion.
Norm of ci vector (sum of ci^2): 1
Found 5 unique group0 determinants.
Found 5 unique group1 determinants.
Found 5 unique group2 determinants.
max CI coeff at det number 0 with value 0.992789
Number of terms in pairs array: 4
Number of terms in pairs array: 4
Number of terms in pairs array: 4
CI coefficients are not optimizable. 
  Added a fermionic WaveFunctionComponent MultiSlaterDetTableMethod
  Adding psi0 TrialWaveFunction to the pool

 Hamiltonian and observables
 ---------------------------
  Name: h0

  QMCHamiltonian::addOperator Kinetic to H, physical Hamiltonian 

   Coulomb Potential
   -----------------
    Name: ElecElec   Type: AA   PBC: no

  QMCHamiltonian::addOperator ElecElec to H, physical Hamiltonian 
QMCHamiltonian::addOperatorType added type coulomb named ElecElec

   Coulomb Potential
   -----------------
    Name: IonIon   Type: AA   PBC: no

  CoulombAA for ion0 is not created.  Number of particles == 1 and nonPeriodic

   Coulomb Potential
   -----------------
    Name: IonElec   Type: AB   PBC: no

  QMCHamiltonian::addOperator IonElec to H, physical Hamiltonian 
QMCHamiltonian::addOperatorType added type coulomb named IonElec

  QMCHamiltonian::add2WalkerProperty added
    3 to P::PropertyList 
    0 to P::Collectables 
    starting Index of the observables in P::PropertyList = 9
ParticleSetPool::randomize 1 ParticleSet.
<init source="ion0" target="e">
</init>
  Initialization Execution time = 0.03971 secs
=========================================================
 Summary of QMC systems 
=========================================================
ParticleSetPool has: 

  ParticleSet 'e' contains 3 particles :  ue(1) de(1) up(1)

    ue -7.5979552275e-02 -2.8032370190e-03 -3.4323687534e-01
    de -1.0321641717e+00 -1.2960050045e-02 -1.6346891520e+00
    up -9.2431502020e-01 -6.9055866003e-01  1.7598009300e+00

  Distance table for dissimilar particles (A-B):
    source: ion0  target: e
    Using structure-of-arrays (SoA) data layout
    Distance computations use open boundary conditions in 3D.

  Distance table for similar particles (A-A):
    source/target: e
    Using structure-of-arrays (SoA) data layout
    Distance computations use open boundary conditions in 3D.


  ParticleSet 'ion0' contains 1 particles :  H(1)

    H  0.0000000000e+00  0.0000000000e+00  0.0000000000e+00


  Hamiltonian h0
  Kinetic         Kinetic energy
  ElecElec        CoulombAB source=e

  IonElec         CoulombAA source/target ion0



=========================================================
  Start VMC
  File Root qmc_ref-MD-H_Ground.s000 append = no 
=========================================================
Resetting walkers
  Adding 16 walkers to 0 existing sets
  Total number of walkers: 0.0000000000e+00
  Total weight: 0.0000000000e+00
  Resetting Properties of the walkers 1 x 12

<vmc function="put">
  qmc_counter=0  my_counter=0
  time step      = 5.0000000000e-01
  blocks         = 10000
  steps          = 2000
  substeps       = 8
  current        = 0
  target samples = 0.0000000000e+00
  walkers/mpi    = 16

  stepsbetweensamples = 20002000
<parameter name="blocks">10000</parameter>
<parameter name="blocks_between_recompute">10</parameter>
<parameter name="check_properties">100</parameter>
<parameter name="checkproperties">100</parameter>
<parameter name="current">0</parameter>
<parameter name="dmcwalkersperthread">0.0000000000e+00</parameter>
<parameter name="max_seconds">360000</parameter>
<parameter name="maxcpusecs">360000</parameter>
<parameter name="record_configs">0</parameter>
<parameter name="record_walkers">20002000</parameter>
<parameter name="recordconfigs">0</parameter>
<parameter name="recordwalkers">20002000</parameter>
<parameter name="samples">0.0000000000e+00</parameter>
<parameter name="samplesperthread">0.0000000000e+00</parameter>
<parameter name="spinmass">1.0000000000e+00</parameter>
<parameter name="steps">2000</parameter>
<parameter name="stepsbetweensamples">20002000</parameter>
<parameter name="store_configs">0</parameter>
<parameter name="storeconfigs">0</parameter>
<parameter name="sub_steps">8</parameter>
<parameter name="substeps">8</parameter>
<parameter name="tau">5.0000000000e-01</parameter>
<parameter name="time_step">5.0000000000e-01</parameter>
<parameter name="timestep">5.0000000000e-01</parameter>
<parameter name="use_drift">no</parameter>
<parameter name="usedrift">no</parameter>
<parameter name="walkers">16</parameter>
<parameter name="warmup_steps">100</parameter>
<parameter name="warmupsteps">100</parameter>
  DumpConfig==false Nothing (configurations, state) will be saved.
  Walker Samples are dumped every 20002000 steps.
</vmc>
  Set drift_modifier UNR parameter a = 1.0000000000e+00
  CloneManager::makeClones makes 16 clones for W/Psi/H.
  Cloning methods for both Psi and H are used
=========================================================
--- Memory usage report : Memory Usage before cloning ---
=========================================================
Available memory on node 0, free + buffers :   49470 MiB
Memory footprint by rank 0 on node 0       :      27 MiB
=========================================================
========================================================
--- Memory usage report : Memory Usage after cloning ---
========================================================
Available memory on node 0, free + buffers :   49470 MiB
Memory footprint by rank 0 on node 0       :      27 MiB
========================================================
  Initial partition of walkers 0 1 2 3 4 5 6 7 8 9 10 11 12 13 14 15 16 

  Using Particle by Particle moves
  Walker moves without drift
  Total Sample Size   =0
  Walker distribution on root = 0 1 2 3 4 5 6 7 8 9 10 11 12 13 14 15 16 
========================================================================
--- Memory usage report : Memory Usage after the buffer registration ---
========================================================================
Available memory on node 0, free + buffers :   49470 MiB
Memory footprint by rank 0 on node 0       :      27 MiB
========================================================================
  Anonymous Buffer size per walker : 18616 Bytes.
MEMORY increase 0 MB VMC::resetRun
====================================================
  SimpleFixedNodeBranch::finalize after a VMC block
    QMC counter        = 0
    time step          = 0.5
    reference energy   = -0.674297
    reference variance = 0.242811
====================================================
  QMC Execution time = 1.0593e+03 secs
  Total Execution time = 1.0593e+03 secs

=========================================================
  A new xml input file : qmc_ref-MD-H_Ground.s000.cont.xml

Use --enable-timers=<value> command line option to increase or decrease level of timing information
Stack timer profile
Timer      Inclusive_time  Exclusive_time  Calls       Time_per_call
Total      1059.3291     0.0000              1    1059.329133638
  Startup     0.0397     0.0397              1       0.039732938
  VMC      1059.2894  1059.2894              1    1059.289358500

QMCPACK execution completed successfully
