
     Program PWSCF v.6.4.1 starts on 14Nov2019 at 12:55:32 

     This program is part of the open-source Quantum ESPRESSO suite
     for quantum simulation of materials; please cite
         "P. Giannozzi et al., J. Phys.:Condens. Matter 21 395502 (2009);
         "P. Giannozzi et al., J. Phys.:Condens. Matter 29 465901 (2017);
          URL http://www.quantum-espresso.org", 
     in publications or presentations arising from this work. More details at
     http://www.quantum-espresso.org/quote

     Parallel version (MPI), running on     1 processors

     MPI processes distributed on     1 nodes
     Waiting for input...
     Reading input from standard input
     Message from routine read_cards :
     DEPRECATED: no units specified in CELL_PARAMETERS card

     Current dimensions of program PWSCF are:
     Max number of different atomic species (ntypx) = 10
     Max number of k-points (npk) =  40000
     Max angular momentum in pseudopotentials (lmaxx) =  3
     Message from routine cell_base_init:
     DEPRECATED: use true lattice parameter, not A to a.u. conversion factor

     IMPORTANT: XC functional enforced from input :
     Exchange-correlation      = LDA ( 1  1  0  0 0 0)
     Any further DFT definition will be discarded
     Please, verify this is what you really want

               file O.BFD.upf: wavefunction(s)  0s 0p renormalized
               file O.BFD.upf: wavefunction(s)  0s 0p renormalized

     Subspace diagonalization in iterative solution of the eigenvalue problem:
     a serial algorithm will be used


     G-vector sticks info
     --------------------
     sticks:   dense  smooth     PW     G-vecs:    dense   smooth      PW
     Sum         425     425    105                 7977     7977     981



     bravais-lattice index     =            0
     lattice parameter (alat)  =       1.0000  a.u.
     unit-cell volume          =     234.2976 (a.u.)^3
     number of atoms/cell      =            2
     number of atomic types    =            2
     number of electrons       =        12.00
     number of Kohn-Sham states=           20
     kinetic-energy cutoff     =      40.0000  Ry
     charge density cutoff     =     160.0000  Ry
     convergence threshold     =      1.0E-08
     mixing beta               =       0.7000
     number of iterations used =            8  plain     mixing
     Exchange-correlation      = LDA ( 1  1  0  0 0 0)
     Noncollinear calculation without spin-orbit


     celldm(1)=   1.000000  celldm(2)=   0.000000  celldm(3)=   0.000000
     celldm(4)=   0.000000  celldm(5)=   0.000000  celldm(6)=   0.000000

     crystal axes: (cart. coord. in units of alat)
               a(1) = (   5.105095  -3.239935  -0.000000 )  
               a(2) = (   5.105095   3.239935   0.000000 )  
               a(3) = (  -6.496906  -0.000000   7.082680 )  

     reciprocal axes: (cart. coord. in units 2 pi/alat)
               b(1) = (  0.097941 -0.154324  0.089841 )  
               b(2) = (  0.097941  0.154324  0.089841 )  
               b(3) = (  0.000000 -0.000000  0.141189 )  


     PseudoPot. # 1 for O  read from file:
     ./O.BFD.upf
     MD5 check sum: 1e0c058f731087ccd4c3c4a2233f9cdd
     Pseudo is Norm-conserving, Zval =  6.0
     Generated by new atomic code, or converted to UPF format
     Using radial grid of 2000 points,  1 beta functions with: 
                l(1) =   0

     PseudoPot. # 2 for O  read from file:
     ./O.BFD.upf
     MD5 check sum: 1e0c058f731087ccd4c3c4a2233f9cdd
     Pseudo is Norm-conserving, Zval =  6.0
     Generated by new atomic code, or converted to UPF format
     Using radial grid of 2000 points,  1 beta functions with: 
                l(1) =   0

     atomic species   valence    mass     pseudopotential
        O1             6.00    15.99900     O ( 1.00)
        O2             6.00    15.99900     O ( 1.00)

     No symmetry found


                                    s                        frac. trans.

      isym =  1     identity                                     

 Time Reversal            0
 cryst.   s( 1) = (     1          0          0      )
                  (     0          1          0      )
                  (     0          0          1      )

 cart.    s( 1) = (  1.0000000  0.0000000  0.0000000 )
                  (  0.0000000  1.0000000  0.0000000 )
                  (  0.0000000  0.0000000  1.0000000 )


   Cartesian axes

     site n.     atom                  positions (alat units)
         1           O1  tau(   1) = (  -0.0000000  -0.0000000   1.0865925  )
         2           O2  tau(   2) = (   0.0000000   0.0000000  -1.0865925  )

   Crystallographic axes

     site n.     atom                  positions (cryst. coord.)
         1           O1  tau(   1) = (  0.0976207  0.0976207  0.1534154  )
         2           O2  tau(   2) = ( -0.0976207 -0.0976207 -0.1534154  )

     number of k points=     1  Fermi-Dirac smearing, width (Ry)=  0.0001
                       cart. coord. in units 2pi/alat
        k(    1) = (   0.0000000   0.0000000   0.0000000), wk =   1.0000000

                       cryst. coord.
        k(    1) = (   0.0000000   0.0000000   0.0000000), wk =   1.0000000

     Dense  grid:     7977 G-vectors     FFT dimensions: (  25,  25,  40)

     Dynamical RAM for                 wfc:       0.61 MB

     Dynamical RAM for     wfc (w. buffer):       0.61 MB

     Dynamical RAM for           str. fact:       0.24 MB

     Dynamical RAM for           local pot:       0.00 MB

     Dynamical RAM for          nlocal pot:       0.03 MB

     Dynamical RAM for                qrad:       0.00 MB

     Dynamical RAM for          rho,v,vnew:       3.75 MB

     Dynamical RAM for               rhoin:       1.25 MB

     Dynamical RAM for            rho*nmix:       7.79 MB

     Dynamical RAM for           G-vectors:       0.52 MB

     Dynamical RAM for          h,s,v(r/c):       0.29 MB

     Dynamical RAM for          <psi|beta>:       0.00 MB

     Dynamical RAM for                 psi:       2.44 MB

     Dynamical RAM for                hpsi:       2.44 MB

     Dynamical RAM for      wfcinit/wfcrot:       0.93 MB

     Estimated static dynamical RAM per process >      16.09 MB

     Estimated max dynamical RAM per process >      21.27 MB
     Generating pointlists ...
     new r_m :   0.8964 (alat units)  0.8964 (a.u.) for type    1
     new r_m :   0.8964 (alat units)  0.8964 (a.u.) for type    2

     Initial potential from superposition of free atoms

     starting charge    0.95494, renormalised to   12.00000

     negative rho (up, down):  4.261E-04 0.000E+00

 ==============================================================================
     atom number    1 relative position :   -0.0000  -0.0000   1.0866
     charge :     2.655138
     magnetization :          0.938733    0.000000    0.938733
     magnetization/charge:    0.353553    0.000000    0.353553
     polar coord.: r, theta, phi [deg] :     1.327569   45.000000    0.000000

 ==============================================================================

 ==============================================================================
     atom number    2 relative position :    0.0000   0.0000  -1.0866
     charge :     2.655138
     magnetization :          0.938733    0.000000    0.938733
     magnetization/charge:    0.353553    0.000000    0.353553
     polar coord.: r, theta, phi [deg] :     1.327569   45.000000    0.000000

 ==============================================================================
     Starting wfcs are   16 randomized atomic wfcs +    4 random wfcs

     total cpu time spent up to now is        1.6 secs

     Self-consistent Calculation

     iteration #  1     ecut=    40.00 Ry     beta= 0.70
     Davidson diagonalization with overlap
     ethr =  1.00E-02,  avg # of iterations =  6.0

     negative rho (up, down):  0.000E+00 8.000E-05

     total cpu time spent up to now is        1.9 secs

     total energy              =     -61.37514135 Ry
     Harris-Foulkes estimate   =     -61.25746574 Ry
     estimated scf accuracy    <       0.35638958 Ry

     total magnetization       =     1.41     0.00     1.41 Bohr mag/cell
     absolute magnetization    =     2.10 Bohr mag/cell

     iteration #  2     ecut=    40.00 Ry     beta= 0.70
     Davidson diagonalization with overlap
     ethr =  2.97E-03,  avg # of iterations =  2.0

     total cpu time spent up to now is        2.0 secs

     total energy              =     -61.43757514 Ry
     Harris-Foulkes estimate   =     -61.42860503 Ry
     estimated scf accuracy    <       0.04329503 Ry

     total magnetization       =     1.41    -0.00     1.41 Bohr mag/cell
     absolute magnetization    =     2.04 Bohr mag/cell

     iteration #  3     ecut=    40.00 Ry     beta= 0.70
     Davidson diagonalization with overlap
     ethr =  3.61E-04,  avg # of iterations =  2.0

     total cpu time spent up to now is        2.2 secs

     total energy              =     -61.44733159 Ry
     Harris-Foulkes estimate   =     -61.44481219 Ry
     estimated scf accuracy    <       0.00478504 Ry

     total magnetization       =     1.41    -0.00     1.41 Bohr mag/cell
     absolute magnetization    =     2.03 Bohr mag/cell

     iteration #  4     ecut=    40.00 Ry     beta= 0.70
     Davidson diagonalization with overlap
     ethr =  3.99E-05,  avg # of iterations =  3.0

     total cpu time spent up to now is        2.4 secs

     total energy              =     -61.44787545 Ry
     Harris-Foulkes estimate   =     -61.44783838 Ry
     estimated scf accuracy    <       0.00005327 Ry

     total magnetization       =     1.41    -0.00     1.41 Bohr mag/cell
     absolute magnetization    =     2.03 Bohr mag/cell

     iteration #  5     ecut=    40.00 Ry     beta= 0.70
     Davidson diagonalization with overlap
     ethr =  4.44E-07,  avg # of iterations =  4.0

     total cpu time spent up to now is        2.7 secs

     total energy              =     -61.44789337 Ry
     Harris-Foulkes estimate   =     -61.44789416 Ry
     estimated scf accuracy    <       0.00000480 Ry

     total magnetization       =     1.41    -0.00     1.41 Bohr mag/cell
     absolute magnetization    =     2.03 Bohr mag/cell

     iteration #  6     ecut=    40.00 Ry     beta= 0.70
     Davidson diagonalization with overlap
     ethr =  4.00E-08,  avg # of iterations =  2.0

     total cpu time spent up to now is        3.0 secs

     total energy              =     -61.44789433 Ry
     Harris-Foulkes estimate   =     -61.44789422 Ry
     estimated scf accuracy    <       0.00000022 Ry

     total magnetization       =     1.41    -0.00     1.41 Bohr mag/cell
     absolute magnetization    =     2.03 Bohr mag/cell

     iteration #  7     ecut=    40.00 Ry     beta= 0.70
     Davidson diagonalization with overlap
     ethr =  1.87E-09,  avg # of iterations =  2.0

     total cpu time spent up to now is        3.2 secs

     total energy              =     -61.44789439 Ry
     Harris-Foulkes estimate   =     -61.44789446 Ry
     estimated scf accuracy    <       0.00000019 Ry

     total magnetization       =     1.41    -0.00     1.41 Bohr mag/cell
     absolute magnetization    =     2.03 Bohr mag/cell

     iteration #  8     ecut=    40.00 Ry     beta= 0.70
     Davidson diagonalization with overlap
     ethr =  1.57E-09,  avg # of iterations =  2.0

 ==============================================================================
     atom number    1 relative position :   -0.0000  -0.0000   1.0866
     charge :     2.563011
     magnetization :          0.333721   -0.000001    0.333722
     magnetization/charge:    0.130207   -0.000000    0.130207
     polar coord.: r, theta, phi [deg] :     0.471953   44.999901   -0.000210

 ==============================================================================

 ==============================================================================
     atom number    2 relative position :    0.0000   0.0000  -1.0866
     charge :     2.562992
     magnetization :          0.333729   -0.000001    0.333730
     magnetization/charge:    0.130211   -0.000000    0.130211
     polar coord.: r, theta, phi [deg] :     0.471965   44.999898   -0.000190

 ==============================================================================

     total cpu time spent up to now is        3.3 secs

     End of self-consistent calculation

          k = 0.0000 0.0000 0.0000 (   981 PWs)   bands (ev):

   -29.5123 -28.2496 -15.7744 -13.9428  -8.2499  -7.1870  -6.7235  -6.6537
    -5.0820  -4.9853   1.5970   1.8804   3.5840   3.9067   5.3102   5.7898
    11.9755  12.2412  13.8282  14.2390

     occupation numbers 
     1.0000   1.0000   1.0000   1.0000   1.0000   1.0000   1.0000   1.0000
     1.0000   1.0000   1.0000   1.0000   0.0000   0.0000   0.0000   0.0000
     0.0000   0.0000   0.0000   0.0000

     the Fermi energy is     3.3026 ev

!    total energy              =     -61.44789442 Ry
     Harris-Foulkes estimate   =     -61.44789442 Ry
     estimated scf accuracy    <          3.9E-09 Ry

     The total energy is the sum of the following terms:

     one-electron contribution =     -42.26457887 Ry
     hartree contribution      =      25.24517711 Ry
     xc contribution           =     -13.16315637 Ry
     ewald contribution        =     -31.26533629 Ry
     smearing contrib. (-TS)   =       0.00000000 Ry

     total magnetization       =     1.41    -0.00     1.41 Bohr mag/cell
     absolute magnetization    =     2.03 Bohr mag/cell

     convergence has been achieved in   8 iterations

     Writing output data file pwscf.save/

     init_run     :      2.00s CPU      1.10s WALL (       1 calls)
     electrons    :      3.41s CPU      1.73s WALL (       1 calls)

     Called by init_run:
     wfcinit      :      0.31s CPU      0.25s WALL (       1 calls)
     wfcinit:atom :      0.00s CPU      0.00s WALL (       1 calls)
     wfcinit:wfcr :      0.31s CPU      0.25s WALL (       1 calls)
     potinit      :      0.60s CPU      0.30s WALL (       1 calls)
     hinit0       :      1.06s CPU      0.53s WALL (       1 calls)

     Called by electrons:
     c_bands      :      2.19s CPU      1.10s WALL (       8 calls)
     sum_band     :      0.47s CPU      0.24s WALL (       8 calls)
     v_of_rho     :      0.48s CPU      0.24s WALL (       9 calls)
     v_h          :      0.01s CPU      0.01s WALL (       9 calls)
     v_xc         :      0.47s CPU      0.23s WALL (       9 calls)
     mix_rho      :      0.21s CPU      0.12s WALL (       8 calls)

     Called by c_bands:
     init_us_2    :      0.00s CPU      0.00s WALL (      17 calls)
     cegterg      :      2.18s CPU      1.10s WALL (       8 calls)

     Called by sum_band:

     Called by *egterg:
     h_psi        :      2.01s CPU      1.01s WALL (      32 calls)
     g_psi        :      0.01s CPU      0.00s WALL (      23 calls)
     cdiaghg      :      0.31s CPU      0.25s WALL (      31 calls)
     cegterg:over :      0.06s CPU      0.03s WALL (      23 calls)
     cegterg:upda :      0.05s CPU      0.03s WALL (      23 calls)
     cegterg:last :      0.02s CPU      0.01s WALL (       8 calls)

     Called by h_psi:
     h_psi:pot    :      2.00s CPU      1.01s WALL (      32 calls)
     h_psi:calbec :      0.01s CPU      0.01s WALL (      32 calls)
     vloc_psi     :      1.98s CPU      1.00s WALL (      32 calls)
     add_vuspsi   :      0.01s CPU      0.01s WALL (      32 calls)

     General routines
     calbec       :      0.01s CPU      0.01s WALL (      32 calls)
     fft          :      0.06s CPU      0.03s WALL (      74 calls)
     ffts         :      0.02s CPU      0.01s WALL (      32 calls)
     fftw         :      1.67s CPU      0.84s WALL (    2012 calls)

     Parallel routines

     PWSCF        :      6.65s CPU      3.56s WALL


   This run was terminated on:  12:55:35  14Nov2019            

=------------------------------------------------------------------------------=
   JOB DONE.
=------------------------------------------------------------------------------=
