  Input file(s): input.xml 

=====================================================
                    QMCPACK 0.6.1 

  (c) Copyright 2003-  QMCPACK developers            

  Subversion branch 5535
  Last modified     2012-06-21 09:08:24 -0500 (Thu, 21 Jun 2012)
=====================================================

  MPI Nodes            = 128
  MPI Nodes per group  = 128
  MPI Group ID         = 0
  OMP_NUM_THREADS      = 8
  Input XML = input.xml

  Project = ref
  date    = 2012-10-22 12:42:28 CDT
  host    = jaguar
  user    = auser

  Random number offset = 1023  seeds = 8167-17881
Particles are grouped. Safe to use groups 
  expandSuperCell:: 
  TileMatrix != Identity. Expanding a simulation cell for ion0
   tilematrix=    4    0    0    0    4    0    0    0    1

  Reduced coord    Cartesion coord    species.
      0.0000      0.0000     0.0000       0.000000     0.000000     0.000000 0
      0.0833      0.1667     0.0000      -0.000000     2.685253     0.000000 0
      0.0000      0.0000     0.5000       0.000000     0.000000     6.338047 0
      0.1667      0.0833     0.5000       2.325497     1.342626     6.338047 0
      0.0000      0.2500     0.0000      -2.325497     4.027879     0.000000 0
      0.0833      0.4167     0.0000      -2.325497     6.713132     0.000000 0
      0.0000      0.2500     0.5000      -2.325497     4.027879     6.338047 0
      0.1667      0.3333     0.5000       0.000000     5.370505     6.338047 0
      0.0000      0.5000     0.0000      -4.650994     8.055758     0.000000 0
      0.0833      0.6667     0.0000      -4.650994    10.741010     0.000000 0
      0.0000      0.5000     0.5000      -4.650994     8.055758     6.338047 0
      0.1667      0.5833     0.5000      -2.325497     9.398384     6.338047 0
      0.0000      0.7500     0.0000      -6.976491    12.083637     0.000000 0
      0.0833      0.9167     0.0000      -6.976491    14.768889     0.000000 0
      0.0000      0.7500     0.5000      -6.976491    12.083637     6.338047 0
      0.1667      0.8333     0.5000      -4.650994    13.426263     6.338047 0
      0.2500      0.0000     0.0000       4.650994     0.000000     0.000000 0
      0.3333      0.1667     0.0000       4.650994     2.685253     0.000000 0
      0.2500      0.0000     0.5000       4.650994     0.000000     6.338047 0
      0.4167      0.0833     0.5000       6.976491     1.342626     6.338047 0
      0.2500      0.2500     0.0000       2.325497     4.027879     0.000000 0
      0.3333      0.4167     0.0000       2.325497     6.713132     0.000000 0
      0.2500      0.2500     0.5000       2.325497     4.027879     6.338047 0
      0.4167      0.3333     0.5000       4.650994     5.370505     6.338047 0
      0.2500      0.5000     0.0000       0.000000     8.055758     0.000000 0
      0.3333      0.6667     0.0000      -0.000000    10.741010     0.000000 0
      0.2500      0.5000     0.5000       0.000000     8.055758     6.338047 0
      0.4167      0.5833     0.5000       2.325497     9.398384     6.338047 0
      0.2500      0.7500     0.0000      -2.325497    12.083637     0.000000 0
      0.3333      0.9167     0.0000      -2.325497    14.768889     0.000000 0
      0.2500      0.7500     0.5000      -2.325497    12.083637     6.338047 0
      0.4167      0.8333     0.5000       0.000000    13.426263     6.338047 0
      0.5000      0.0000     0.0000       9.301988     0.000000     0.000000 0
      0.5833      0.1667     0.0000       9.301988     2.685253     0.000000 0
      0.5000      0.0000     0.5000       9.301988     0.000000     6.338047 0
      0.6667      0.0833     0.5000      11.627485     1.342626     6.338047 0
      0.5000      0.2500     0.0000       6.976491     4.027879     0.000000 0
      0.5833      0.4167     0.0000       6.976491     6.713132     0.000000 0
      0.5000      0.2500     0.5000       6.976491     4.027879     6.338047 0
      0.6667      0.3333     0.5000       9.301988     5.370505     6.338047 0
      0.5000      0.5000     0.0000       4.650994     8.055758     0.000000 0
      0.5833      0.6667     0.0000       4.650994    10.741010     0.000000 0
      0.5000      0.5000     0.5000       4.650994     8.055758     6.338047 0
      0.6667      0.5833     0.5000       6.976491     9.398384     6.338047 0
      0.5000      0.7500     0.0000       2.325497    12.083637     0.000000 0
      0.5833      0.9167     0.0000       2.325497    14.768889     0.000000 0
      0.5000      0.7500     0.5000       2.325497    12.083637     6.338047 0
      0.6667      0.8333     0.5000       4.650994    13.426263     6.338047 0
      0.7500      0.0000     0.0000      13.952982     0.000000     0.000000 0
      0.8333      0.1667     0.0000      13.952982     2.685253     0.000000 0
      0.7500      0.0000     0.5000      13.952982     0.000000     6.338047 0
      0.9167      0.0833     0.5000      16.278479     1.342626     6.338047 0
      0.7500      0.2500     0.0000      11.627485     4.027879     0.000000 0
      0.8333      0.4167     0.0000      11.627485     6.713132     0.000000 0
      0.7500      0.2500     0.5000      11.627485     4.027879     6.338047 0
      0.9167      0.3333     0.5000      13.952982     5.370505     6.338047 0
      0.7500      0.5000     0.0000       9.301988     8.055758     0.000000 0
      0.8333      0.6667     0.0000       9.301988    10.741010     0.000000 0
      0.7500      0.5000     0.5000       9.301988     8.055758     6.338047 0
      0.9167      0.5833     0.5000      11.627485     9.398384     6.338047 0
      0.7500      0.7500     0.0000       6.976491    12.083637     0.000000 0
      0.8333      0.9167     0.0000       6.976491    14.768889     0.000000 0
      0.7500      0.7500     0.5000       6.976491    12.083637     6.338047 0
      0.9167      0.8333     0.5000       9.301988    13.426263     6.338047 0
  Simulationcell after tiling
<unitcell>
<parameter name="lattice">
       18.60397583                 0                 0
      -9.301987917       16.11151568                 0
                 0                 0       12.67609393
</parameter>
<parameter name="bconds">  p  p  p </parameter>
<note>
Volume (A^3) = 3799.51019
Reciprocal vectors without 2*pi.
g_1 =      0.05375195114     0.03103370346                -0
g_2 =                  0     0.06206740692                 0
g_3 =                  0                -0     0.07888865496
Metric tensor in real-space.
h_1 = 346.1079168 -173.0539584 0 
h_2 = -173.0539584 346.1079168 0 
h_3 = 0 0 160.6833572 
Metric tensor in g-space.
h_1 = 0.1520851954 0.07604259768 0 
h_2 = 0.07604259768 0.1520851954 0 
h_3 = 0 0 0.245690769 
</note>
<note>
	Long-range breakup parameters:
	rc*kc = 15; rc = 1000000; kc = 0

</note>
</unitcell>

Particles are grouped. Safe to use groups 
	Long-range breakup parameters:
	rc*kc = 15; rc = 6.338046963; kc = 2.366659649

	WignerSeitzRadius = 6.338046963

	SimulationCellRadius = 6.338046963


  Creating Structure Factor for periodic systems.
  KContainer initialised with cutoff 2.366659649
  Simulation cell radius = 6.338046963
  Wigner-Seitz    radius = 6.338046963
<unitcell>
<parameter name="lattice">
       18.60397583                 0                 0
      -9.301987917       16.11151568                 0
                 0                 0       12.67609393
</parameter>
<parameter name="bconds">  p  p  p </parameter>
<note>
Volume (A^3) = 3799.51019
Reciprocal vectors without 2*pi.
g_1 =      0.05375195114     0.03103370346                -0
g_2 =                  0     0.06206740692                 0
g_3 =                  0                -0     0.07888865496
Metric tensor in real-space.
h_1 = 346.1079168 -173.0539584 0 
h_2 = -173.0539584 346.1079168 0 
h_3 = 0 0 160.6833572 
Metric tensor in g-space.
h_1 = 0.1520851954 0.07604259768 0 
h_2 = 0.07604259768 0.1520851954 0 
h_3 = 0 0 0.245690769 
</note>
<note>
	Long-range breakup parameters:
	rc*kc = 15; rc = 6.338046963; kc = 2.366659649

</note>
</unitcell>
	Long-range breakup parameters:
	rc*kc = 15; rc = 6.338046963; kc = 2.366659649

	WignerSeitzRadius = 6.338046963

	SimulationCellRadius = 6.338046963


  Creating Structure Factor for periodic systems.
  KContainer initialised with cutoff 2.366659649
 [  4  0  0
    0  4  0
    0  0  1 ]
  WaveFunctionFactory::build
  WaveFunctionFactory::addFermionTerm
  SlaterDetBuilder::put(xmlNodePtr)
  BasisSetFactory::createBasisSet
EinsplineSetBuilder:  using libeinspline for B-spline orbitals.

 Built basis bspline
  SlaterDetBuilder::putDeterminant(xmlNodePtr,int)
  BasisSetFactory::createBasisSet

 Building SPOset  with bspline basis set.
  Reading 128 orbitals from HDF5 file.
  Reading orbital file in ESHDF format.
  ESHDF orbital file version 2.0.0
  Lattice = 
    [  4.650994  0.000000  0.000000
      -2.325497  4.027879  0.000000
       0.000000  0.000000 12.676094 ]
  SuperLattice = 
    [ 18.603976  0.000000  0.000000
      -9.301988 16.111516  0.000000
       0.000000  0.000000 12.676094 ]
bands=16, elecs=256, spins=1, twists=2304, muffin tins=0, core states=0
atomic orbital=0
Atom type(0) = 6
Atom type(1) = 6
Atom type(2) = 6
Atom type(3) = 6
  Read 31995 density G-vectors.
  EinsplineSetBuilder found density in the HDF5 file.
  Read 0 VHXC G-vectors.
TIMER  EinsplineSetBuilder::ReadOrbitalInfo 2.627159618
TIMER  EinsplineSetBuilder::BroadcastOrbitalInfo 0.007161468006
Super twist #0:  [   0.00000   0.00000   0.00000 ]
  Using k-points:  0 24 48 72 576 600 624 648 1152 1176 1200 1224 1728 1752 1776 1800
Super twist #1:  [   0.00000   0.00000  -0.25000 ]
  Using k-points:  1 25 49 73 577 601 625 649 1153 1177 1201 1225 1729 1753 1777 1801
Super twist #2:  [   0.00000   0.00000   0.50000 ]
  Using k-points:  2 26 50 74 578 602 626 650 1154 1178 1202 1226 1730 1754 1778 1802
Super twist #3:  [   0.00000   0.00000   0.25000 ]
  Using k-points:  3 27 51 75 579 603 627 651 1155 1179 1203 1227 1731 1755 1779 1803
Super twist #4:  [   0.00000  -0.16667   0.00000 ]
  Using k-points:  4 28 52 76 580 604 628 652 1156 1180 1204 1228 1732 1756 1780 1804
Super twist #5:  [   0.00000  -0.16667  -0.25000 ]
  Using k-points:  5 29 53 77 581 605 629 653 1157 1181 1205 1229 1733 1757 1781 1805
Super twist #6:  [   0.00000  -0.16667   0.50000 ]
  Using k-points:  6 30 54 78 582 606 630 654 1158 1182 1206 1230 1734 1758 1782 1806
Super twist #7:  [   0.00000  -0.16667   0.25000 ]
  Using k-points:  7 31 55 79 583 607 631 655 1159 1183 1207 1231 1735 1759 1783 1807
Super twist #8:  [   0.00000  -0.33333   0.00000 ]
  Using k-points:  8 32 56 80 584 608 632 656 1160 1184 1208 1232 1736 1760 1784 1808
Super twist #9:  [   0.00000  -0.33333  -0.25000 ]
  Using k-points:  9 33 57 81 585 609 633 657 1161 1185 1209 1233 1737 1761 1785 1809
Super twist #10:  [   0.00000  -0.33333   0.50000 ]
  Using k-points:  10 34 58 82 586 610 634 658 1162 1186 1210 1234 1738 1762 1786 1810
Super twist #11:  [   0.00000  -0.33333   0.25000 ]
  Using k-points:  11 35 59 83 587 611 635 659 1163 1187 1211 1235 1739 1763 1787 1811
Super twist #12:  [   0.00000   0.50000   0.00000 ]
  Using k-points:  12 36 60 84 588 612 636 660 1164 1188 1212 1236 1740 1764 1788 1812
Super twist #13:  [   0.00000   0.50000  -0.25000 ]
  Using k-points:  13 37 61 85 589 613 637 661 1165 1189 1213 1237 1741 1765 1789 1813
Super twist #14:  [   0.00000   0.50000   0.50000 ]
  Using k-points:  14 38 62 86 590 614 638 662 1166 1190 1214 1238 1742 1766 1790 1814
Super twist #15:  [   0.00000   0.50000   0.25000 ]
  Using k-points:  15 39 63 87 591 615 639 663 1167 1191 1215 1239 1743 1767 1791 1815
Super twist #16:  [   0.00000   0.33333   0.00000 ]
  Using k-points:  16 40 64 88 592 616 640 664 1168 1192 1216 1240 1744 1768 1792 1816
Super twist #17:  [   0.00000   0.33333  -0.25000 ]
  Using k-points:  17 41 65 89 593 617 641 665 1169 1193 1217 1241 1745 1769 1793 1817
Super twist #18:  [   0.00000   0.33333   0.50000 ]
  Using k-points:  18 42 66 90 594 618 642 666 1170 1194 1218 1242 1746 1770 1794 1818
Super twist #19:  [   0.00000   0.33333   0.25000 ]
  Using k-points:  19 43 67 91 595 619 643 667 1171 1195 1219 1243 1747 1771 1795 1819
Super twist #20:  [   0.00000   0.16667   0.00000 ]
  Using k-points:  20 44 68 92 596 620 644 668 1172 1196 1220 1244 1748 1772 1796 1820
Super twist #21:  [   0.00000   0.16667  -0.25000 ]
  Using k-points:  21 45 69 93 597 621 645 669 1173 1197 1221 1245 1749 1773 1797 1821
Super twist #22:  [   0.00000   0.16667   0.50000 ]
  Using k-points:  22 46 70 94 598 622 646 670 1174 1198 1222 1246 1750 1774 1798 1822
Super twist #23:  [   0.00000   0.16667   0.25000 ]
  Using k-points:  23 47 71 95 599 623 647 671 1175 1199 1223 1247 1751 1775 1799 1823
Super twist #24:  [  -0.16667  -0.00000   0.00000 ]
  Using k-points:  96 120 144 168 672 696 720 744 1248 1272 1296 1320 1824 1848 1872 1896
Super twist #25:  [  -0.16667  -0.00000  -0.25000 ]
  Using k-points:  97 121 145 169 673 697 721 745 1249 1273 1297 1321 1825 1849 1873 1897
Super twist #26:  [  -0.16667  -0.00000   0.50000 ]
  Using k-points:  98 122 146 170 674 698 722 746 1250 1274 1298 1322 1826 1850 1874 1898
Super twist #27:  [  -0.16667  -0.00000   0.25000 ]
  Using k-points:  99 123 147 171 675 699 723 747 1251 1275 1299 1323 1827 1851 1875 1899
Super twist #28:  [  -0.16667  -0.16667   0.00000 ]
  Using k-points:  100 124 148 172 676 700 724 748 1252 1276 1300 1324 1828 1852 1876 1900
Super twist #29:  [  -0.16667  -0.16667  -0.25000 ]
  Using k-points:  101 125 149 173 677 701 725 749 1253 1277 1301 1325 1829 1853 1877 1901
Super twist #30:  [  -0.16667  -0.16667   0.50000 ]
  Using k-points:  102 126 150 174 678 702 726 750 1254 1278 1302 1326 1830 1854 1878 1902
Super twist #31:  [  -0.16667  -0.16667   0.25000 ]
  Using k-points:  103 127 151 175 679 703 727 751 1255 1279 1303 1327 1831 1855 1879 1903
Super twist #32:  [  -0.16667  -0.33333   0.00000 ]
  Using k-points:  104 128 152 176 680 704 728 752 1256 1280 1304 1328 1832 1856 1880 1904
Super twist #33:  [  -0.16667  -0.33333  -0.25000 ]
  Using k-points:  105 129 153 177 681 705 729 753 1257 1281 1305 1329 1833 1857 1881 1905
Super twist #34:  [  -0.16667  -0.33333   0.50000 ]
  Using k-points:  106 130 154 178 682 706 730 754 1258 1282 1306 1330 1834 1858 1882 1906
Super twist #35:  [  -0.16667  -0.33333   0.25000 ]
  Using k-points:  107 131 155 179 683 707 731 755 1259 1283 1307 1331 1835 1859 1883 1907
Super twist #36:  [  -0.16667   0.50000   0.00000 ]
  Using k-points:  108 132 156 180 684 708 732 756 1260 1284 1308 1332 1836 1860 1884 1908
Super twist #37:  [  -0.16667   0.50000  -0.25000 ]
  Using k-points:  109 133 157 181 685 709 733 757 1261 1285 1309 1333 1837 1861 1885 1909
Super twist #38:  [  -0.16667   0.50000   0.50000 ]
  Using k-points:  110 134 158 182 686 710 734 758 1262 1286 1310 1334 1838 1862 1886 1910
Super twist #39:  [  -0.16667   0.50000   0.25000 ]
  Using k-points:  111 135 159 183 687 711 735 759 1263 1287 1311 1335 1839 1863 1887 1911
Super twist #40:  [  -0.16667   0.33333   0.00000 ]
  Using k-points:  112 136 160 184 688 712 736 760 1264 1288 1312 1336 1840 1864 1888 1912
Super twist #41:  [  -0.16667   0.33333  -0.25000 ]
  Using k-points:  113 137 161 185 689 713 737 761 1265 1289 1313 1337 1841 1865 1889 1913
Super twist #42:  [  -0.16667   0.33333   0.50000 ]
  Using k-points:  114 138 162 186 690 714 738 762 1266 1290 1314 1338 1842 1866 1890 1914
Super twist #43:  [  -0.16667   0.33333   0.25000 ]
  Using k-points:  115 139 163 187 691 715 739 763 1267 1291 1315 1339 1843 1867 1891 1915
Super twist #44:  [  -0.16667   0.16667   0.00000 ]
  Using k-points:  116 140 164 188 692 716 740 764 1268 1292 1316 1340 1844 1868 1892 1916
Super twist #45:  [  -0.16667   0.16667  -0.25000 ]
  Using k-points:  117 141 165 189 693 717 741 765 1269 1293 1317 1341 1845 1869 1893 1917
Super twist #46:  [  -0.16667   0.16667   0.50000 ]
  Using k-points:  118 142 166 190 694 718 742 766 1270 1294 1318 1342 1846 1870 1894 1918
Super twist #47:  [  -0.16667   0.16667   0.25000 ]
  Using k-points:  119 143 167 191 695 719 743 767 1271 1295 1319 1343 1847 1871 1895 1919
Super twist #48:  [  -0.33333  -0.00000   0.00000 ]
  Using k-points:  192 216 240 264 768 792 816 840 1344 1368 1392 1416 1920 1944 1968 1992
Super twist #49:  [  -0.33333  -0.00000  -0.25000 ]
  Using k-points:  193 217 241 265 769 793 817 841 1345 1369 1393 1417 1921 1945 1969 1993
Super twist #50:  [  -0.33333  -0.00000   0.50000 ]
  Using k-points:  194 218 242 266 770 794 818 842 1346 1370 1394 1418 1922 1946 1970 1994
Super twist #51:  [  -0.33333  -0.00000   0.25000 ]
  Using k-points:  195 219 243 267 771 795 819 843 1347 1371 1395 1419 1923 1947 1971 1995
Super twist #52:  [  -0.33333  -0.16667   0.00000 ]
  Using k-points:  196 220 244 268 772 796 820 844 1348 1372 1396 1420 1924 1948 1972 1996
Super twist #53:  [  -0.33333  -0.16667  -0.25000 ]
  Using k-points:  197 221 245 269 773 797 821 845 1349 1373 1397 1421 1925 1949 1973 1997
Super twist #54:  [  -0.33333  -0.16667   0.50000 ]
  Using k-points:  198 222 246 270 774 798 822 846 1350 1374 1398 1422 1926 1950 1974 1998
Super twist #55:  [  -0.33333  -0.16667   0.25000 ]
  Using k-points:  199 223 247 271 775 799 823 847 1351 1375 1399 1423 1927 1951 1975 1999
Super twist #56:  [  -0.33333  -0.33333   0.00000 ]
  Using k-points:  200 224 248 272 776 800 824 848 1352 1376 1400 1424 1928 1952 1976 2000
Super twist #57:  [  -0.33333  -0.33333  -0.25000 ]
  Using k-points:  201 225 249 273 777 801 825 849 1353 1377 1401 1425 1929 1953 1977 2001
Super twist #58:  [  -0.33333  -0.33333   0.50000 ]
  Using k-points:  202 226 250 274 778 802 826 850 1354 1378 1402 1426 1930 1954 1978 2002
Super twist #59:  [  -0.33333  -0.33333   0.25000 ]
  Using k-points:  203 227 251 275 779 803 827 851 1355 1379 1403 1427 1931 1955 1979 2003
Super twist #60:  [  -0.33333   0.50000   0.00000 ]
  Using k-points:  204 228 252 276 780 804 828 852 1356 1380 1404 1428 1932 1956 1980 2004
Super twist #61:  [  -0.33333   0.50000  -0.25000 ]
  Using k-points:  205 229 253 277 781 805 829 853 1357 1381 1405 1429 1933 1957 1981 2005
Super twist #62:  [  -0.33333   0.50000   0.50000 ]
  Using k-points:  206 230 254 278 782 806 830 854 1358 1382 1406 1430 1934 1958 1982 2006
Super twist #63:  [  -0.33333   0.50000   0.25000 ]
  Using k-points:  207 231 255 279 783 807 831 855 1359 1383 1407 1431 1935 1959 1983 2007
Super twist #64:  [  -0.33333   0.33333   0.00000 ]
  Using k-points:  208 232 256 280 784 808 832 856 1360 1384 1408 1432 1936 1960 1984 2008
Super twist #65:  [  -0.33333   0.33333  -0.25000 ]
  Using k-points:  209 233 257 281 785 809 833 857 1361 1385 1409 1433 1937 1961 1985 2009
Super twist #66:  [  -0.33333   0.33333   0.50000 ]
  Using k-points:  210 234 258 282 786 810 834 858 1362 1386 1410 1434 1938 1962 1986 2010
Super twist #67:  [  -0.33333   0.33333   0.25000 ]
  Using k-points:  211 235 259 283 787 811 835 859 1363 1387 1411 1435 1939 1963 1987 2011
Super twist #68:  [  -0.33333   0.16667   0.00000 ]
  Using k-points:  212 236 260 284 788 812 836 860 1364 1388 1412 1436 1940 1964 1988 2012
Super twist #69:  [  -0.33333   0.16667  -0.25000 ]
  Using k-points:  213 237 261 285 789 813 837 861 1365 1389 1413 1437 1941 1965 1989 2013
Super twist #70:  [  -0.33333   0.16667   0.50000 ]
  Using k-points:  214 238 262 286 790 814 838 862 1366 1390 1414 1438 1942 1966 1990 2014
Super twist #71:  [  -0.33333   0.16667   0.25000 ]
  Using k-points:  215 239 263 287 791 815 839 863 1367 1391 1415 1439 1943 1967 1991 2015
Super twist #72:  [   0.50000  -0.00000   0.00000 ]
  Using k-points:  288 312 336 360 864 888 912 936 1440 1464 1488 1512 2016 2040 2064 2088
Super twist #73:  [   0.50000  -0.00000  -0.25000 ]
  Using k-points:  289 313 337 361 865 889 913 937 1441 1465 1489 1513 2017 2041 2065 2089
Super twist #74:  [   0.50000  -0.00000   0.50000 ]
  Using k-points:  290 314 338 362 866 890 914 938 1442 1466 1490 1514 2018 2042 2066 2090
Super twist #75:  [   0.50000  -0.00000   0.25000 ]
  Using k-points:  291 315 339 363 867 891 915 939 1443 1467 1491 1515 2019 2043 2067 2091
Super twist #76:  [   0.50000  -0.16667   0.00000 ]
  Using k-points:  292 316 340 364 868 892 916 940 1444 1468 1492 1516 2020 2044 2068 2092
Super twist #77:  [   0.50000  -0.16667  -0.25000 ]
  Using k-points:  293 317 341 365 869 893 917 941 1445 1469 1493 1517 2021 2045 2069 2093
Super twist #78:  [   0.50000  -0.16667   0.50000 ]
  Using k-points:  294 318 342 366 870 894 918 942 1446 1470 1494 1518 2022 2046 2070 2094
Super twist #79:  [   0.50000  -0.16667   0.25000 ]
  Using k-points:  295 319 343 367 871 895 919 943 1447 1471 1495 1519 2023 2047 2071 2095
Super twist #80:  [   0.50000  -0.33333   0.00000 ]
  Using k-points:  296 320 344 368 872 896 920 944 1448 1472 1496 1520 2024 2048 2072 2096
Super twist #81:  [   0.50000  -0.33333  -0.25000 ]
  Using k-points:  297 321 345 369 873 897 921 945 1449 1473 1497 1521 2025 2049 2073 2097
Super twist #82:  [   0.50000  -0.33333   0.50000 ]
  Using k-points:  298 322 346 370 874 898 922 946 1450 1474 1498 1522 2026 2050 2074 2098
Super twist #83:  [   0.50000  -0.33333   0.25000 ]
  Using k-points:  299 323 347 371 875 899 923 947 1451 1475 1499 1523 2027 2051 2075 2099
Super twist #84:  [   0.50000   0.50000   0.00000 ]
  Using k-points:  300 324 348 372 876 900 924 948 1452 1476 1500 1524 2028 2052 2076 2100
Super twist #85:  [   0.50000   0.50000  -0.25000 ]
  Using k-points:  301 325 349 373 877 901 925 949 1453 1477 1501 1525 2029 2053 2077 2101
Super twist #86:  [   0.50000   0.50000   0.50000 ]
  Using k-points:  302 326 350 374 878 902 926 950 1454 1478 1502 1526 2030 2054 2078 2102
Super twist #87:  [   0.50000   0.50000   0.25000 ]
  Using k-points:  303 327 351 375 879 903 927 951 1455 1479 1503 1527 2031 2055 2079 2103
Super twist #88:  [   0.50000   0.33333   0.00000 ]
  Using k-points:  304 328 352 376 880 904 928 952 1456 1480 1504 1528 2032 2056 2080 2104
Super twist #89:  [   0.50000   0.33333  -0.25000 ]
  Using k-points:  305 329 353 377 881 905 929 953 1457 1481 1505 1529 2033 2057 2081 2105
Super twist #90:  [   0.50000   0.33333   0.50000 ]
  Using k-points:  306 330 354 378 882 906 930 954 1458 1482 1506 1530 2034 2058 2082 2106
Super twist #91:  [   0.50000   0.33333   0.25000 ]
  Using k-points:  307 331 355 379 883 907 931 955 1459 1483 1507 1531 2035 2059 2083 2107
Super twist #92:  [   0.50000   0.16667   0.00000 ]
  Using k-points:  308 332 356 380 884 908 932 956 1460 1484 1508 1532 2036 2060 2084 2108
Super twist #93:  [   0.50000   0.16667  -0.25000 ]
  Using k-points:  309 333 357 381 885 909 933 957 1461 1485 1509 1533 2037 2061 2085 2109
Super twist #94:  [   0.50000   0.16667   0.50000 ]
  Using k-points:  310 334 358 382 886 910 934 958 1462 1486 1510 1534 2038 2062 2086 2110
Super twist #95:  [   0.50000   0.16667   0.25000 ]
  Using k-points:  311 335 359 383 887 911 935 959 1463 1487 1511 1535 2039 2063 2087 2111
Super twist #96:  [   0.33333   0.00000   0.00000 ]
  Using k-points:  384 408 432 456 960 984 1008 1032 1536 1560 1584 1608 2112 2136 2160 2184
Super twist #97:  [   0.33333   0.00000  -0.25000 ]
  Using k-points:  385 409 433 457 961 985 1009 1033 1537 1561 1585 1609 2113 2137 2161 2185
Super twist #98:  [   0.33333   0.00000   0.50000 ]
  Using k-points:  386 410 434 458 962 986 1010 1034 1538 1562 1586 1610 2114 2138 2162 2186
Super twist #99:  [   0.33333   0.00000   0.25000 ]
  Using k-points:  387 411 435 459 963 987 1011 1035 1539 1563 1587 1611 2115 2139 2163 2187
Super twist #100:  [   0.33333  -0.16667   0.00000 ]
  Using k-points:  388 412 436 460 964 988 1012 1036 1540 1564 1588 1612 2116 2140 2164 2188
Super twist #101:  [   0.33333  -0.16667  -0.25000 ]
  Using k-points:  389 413 437 461 965 989 1013 1037 1541 1565 1589 1613 2117 2141 2165 2189
Super twist #102:  [   0.33333  -0.16667   0.50000 ]
  Using k-points:  390 414 438 462 966 990 1014 1038 1542 1566 1590 1614 2118 2142 2166 2190
Super twist #103:  [   0.33333  -0.16667   0.25000 ]
  Using k-points:  391 415 439 463 967 991 1015 1039 1543 1567 1591 1615 2119 2143 2167 2191
Super twist #104:  [   0.33333  -0.33333   0.00000 ]
  Using k-points:  392 416 440 464 968 992 1016 1040 1544 1568 1592 1616 2120 2144 2168 2192
Super twist #105:  [   0.33333  -0.33333  -0.25000 ]
  Using k-points:  393 417 441 465 969 993 1017 1041 1545 1569 1593 1617 2121 2145 2169 2193
Super twist #106:  [   0.33333  -0.33333   0.50000 ]
  Using k-points:  394 418 442 466 970 994 1018 1042 1546 1570 1594 1618 2122 2146 2170 2194
Super twist #107:  [   0.33333  -0.33333   0.25000 ]
  Using k-points:  395 419 443 467 971 995 1019 1043 1547 1571 1595 1619 2123 2147 2171 2195
Super twist #108:  [   0.33333   0.50000   0.00000 ]
  Using k-points:  396 420 444 468 972 996 1020 1044 1548 1572 1596 1620 2124 2148 2172 2196
Super twist #109:  [   0.33333   0.50000  -0.25000 ]
  Using k-points:  397 421 445 469 973 997 1021 1045 1549 1573 1597 1621 2125 2149 2173 2197
Super twist #110:  [   0.33333   0.50000   0.50000 ]
  Using k-points:  398 422 446 470 974 998 1022 1046 1550 1574 1598 1622 2126 2150 2174 2198
Super twist #111:  [   0.33333   0.50000   0.25000 ]
  Using k-points:  399 423 447 471 975 999 1023 1047 1551 1575 1599 1623 2127 2151 2175 2199
Super twist #112:  [   0.33333   0.33333   0.00000 ]
  Using k-points:  400 424 448 472 976 1000 1024 1048 1552 1576 1600 1624 2128 2152 2176 2200
Super twist #113:  [   0.33333   0.33333  -0.25000 ]
  Using k-points:  401 425 449 473 977 1001 1025 1049 1553 1577 1601 1625 2129 2153 2177 2201
Super twist #114:  [   0.33333   0.33333   0.50000 ]
  Using k-points:  402 426 450 474 978 1002 1026 1050 1554 1578 1602 1626 2130 2154 2178 2202
Super twist #115:  [   0.33333   0.33333   0.25000 ]
  Using k-points:  403 427 451 475 979 1003 1027 1051 1555 1579 1603 1627 2131 2155 2179 2203
Super twist #116:  [   0.33333   0.16667   0.00000 ]
  Using k-points:  404 428 452 476 980 1004 1028 1052 1556 1580 1604 1628 2132 2156 2180 2204
Super twist #117:  [   0.33333   0.16667  -0.25000 ]
  Using k-points:  405 429 453 477 981 1005 1029 1053 1557 1581 1605 1629 2133 2157 2181 2205
Super twist #118:  [   0.33333   0.16667   0.50000 ]
  Using k-points:  406 430 454 478 982 1006 1030 1054 1558 1582 1606 1630 2134 2158 2182 2206
Super twist #119:  [   0.33333   0.16667   0.25000 ]
  Using k-points:  407 431 455 479 983 1007 1031 1055 1559 1583 1607 1631 2135 2159 2183 2207
Super twist #120:  [   0.16667  -0.00000   0.00000 ]
  Using k-points:  480 504 528 552 1056 1080 1104 1128 1632 1656 1680 1704 2208 2232 2256 2280
Super twist #121:  [   0.16667  -0.00000  -0.25000 ]
  Using k-points:  481 505 529 553 1057 1081 1105 1129 1633 1657 1681 1705 2209 2233 2257 2281
Super twist #122:  [   0.16667  -0.00000   0.50000 ]
  Using k-points:  482 506 530 554 1058 1082 1106 1130 1634 1658 1682 1706 2210 2234 2258 2282
Super twist #123:  [   0.16667  -0.00000   0.25000 ]
  Using k-points:  483 507 531 555 1059 1083 1107 1131 1635 1659 1683 1707 2211 2235 2259 2283
Super twist #124:  [   0.16667  -0.16667   0.00000 ]
  Using k-points:  484 508 532 556 1060 1084 1108 1132 1636 1660 1684 1708 2212 2236 2260 2284
Super twist #125:  [   0.16667  -0.16667  -0.25000 ]
  Using k-points:  485 509 533 557 1061 1085 1109 1133 1637 1661 1685 1709 2213 2237 2261 2285
Super twist #126:  [   0.16667  -0.16667   0.50000 ]
  Using k-points:  486 510 534 558 1062 1086 1110 1134 1638 1662 1686 1710 2214 2238 2262 2286
Super twist #127:  [   0.16667  -0.16667   0.25000 ]
  Using k-points:  487 511 535 559 1063 1087 1111 1135 1639 1663 1687 1711 2215 2239Found 144 distinct supercell twists.
 2263 2287
Super twist #128:  [   0.16667  -0.33333   0.00000 ]
  Using k-points:  488 512 536 560 1064 1088 1112 1136 1640 1664 1688 1712 2216 2240 2264 2288
Super twist #129:  [   0.16667  -0.33333  -0.25000 ]
  Using k-points:  489 513 537 561 1065 1089 1113 1137 1641 1665 1689 1713 2217 2241 2265 2289
Super twist #130:  [   0.16667  -0.33333   0.50000 ]
  Using k-points:  490 514 538 562 1066 1090 1114 1138 1642 1666 1690 1714 2218 2242 2266 2290
Super twist #131:  [   0.16667  -0.33333   0.25000 ]
  Using k-points:  491 515 539 563 1067 1091 1115 1139 1643 1667 1691 1715 2219 2243 2267 2291
Super twist #132:  [   0.16667   0.50000   0.00000 ]
  Using k-points:  492 516 540 564 1068 1092 1116 1140 1644 1668 1692 1716 2220 2244 2268 2292
Super twist #133:  [   0.16667   0.50000  -0.25000 ]
  Using k-points:  493 517 541 565 1069 1093 1117 1141 1645 1669 1693 1717 2221 2245 2269 2293
Super twist #134:  [   0.16667   0.50000   0.50000 ]
  Using k-points:  494 518 542 566 1070 1094 1118 1142 1646 1670 1694 1718 2222 2246 2270 2294
Super twist #135:  [   0.16667   0.50000   0.25000 ]
  Using k-points:  495 519 543 567 1071 1095 1119 1143 1647 1671 1695 1719 2223 2247 2271 2295
Super twist #136:  [   0.16667   0.33333   0.00000 ]
  Using k-points:  496 520 544 568 1072 1096 1120 1144 1648 1672 1696 1720 2224 2248 2272 2296
Super twist #137:  [   0.16667   0.33333  -0.25000 ]
  Using k-points:  497 521 545 569 1073 1097 1121 1145 1649 1673 1697 1721 2225 2249 2273 2297
Super twist #138:  [   0.16667   0.33333   0.50000 ]
  Using k-points:  498 522 546 570 1074 1098 1122 1146 1650 1674 1698 1722 2226 2250 2274 2298
Super twist #139:  [   0.16667   0.33333   0.25000 ]
  Using k-points:  499 523 547 571 1075 1099 1123 1147 1651 1675 1699 1723 2227 2251 2275 2299
Super twist #140:  [   0.16667   0.16667   0.00000 ]
  Using k-points:  500 524 548 572 1076 1100 1124 1148 1652 1676 1700 1724 2228 2252 2276 2300
Super twist #141:  [   0.16667   0.16667  -0.25000 ]
  Using k-points:  501 525 549 573 1077 1101 1125 1149 1653 1677 1701 1725 2229 2253 2277 2301
Super twist #142:  [   0.16667   0.16667   0.50000 ]
  Using k-points:  502 526 550 574 1078 1102 1126 1150 1654 1678 1702 1726 2230 2254 2278 2302
Super twist #143:  [   0.16667   0.16667   0.25000 ]
  Using k-points:  503 527 551 575 1079 1103 1127 1151 1655 1679 1703 1727 2231 2255 2279 2303
  Using supercell twist 0:  [   0.00000   0.00000   0.00000]
Using 1 copies of twist angle [-0.000, -0.000, -0.000]
Using 1 copies of twist angle [-0.000,  0.500, -0.000]
Using 2 copies of twist angle [-0.000,  0.250, -0.000]
Using 1 copies of twist angle [ 0.500, -0.000, -0.000]
Using 1 copies of twist angle [ 0.500,  0.500, -0.000]
Using 2 copies of twist angle [ 0.500,  0.250, -0.000]
Using 2 copies of twist angle [ 0.250, -0.000, -0.000]
Using 2 copies of twist angle [ 0.250, -0.250, -0.000]
Using 2 copies of twist angle [ 0.250,  0.500, -0.000]
Using 2 copies of twist angle [ 0.250,  0.250, -0.000]
Using complex orbitals.
GGt = 
0.06163780803  0.03081890402  0 
0.03081890402  0.06163780803  0 
0  0  0.006223419881 
Supercell reduced ion positions = 
     0.0000000000   0.0000000000   0.0000000000
     0.0833333333   0.1666666667   0.0000000000
     0.0000000000   0.0000000000   0.5000000000
     0.1666666667   0.0833333333   0.5000000000
     0.0000000000   0.2500000000   0.0000000000
     0.0833333333   0.4166666667   0.0000000000
     0.0000000000   0.2500000000   0.5000000000
     0.1666666667   0.3333333333   0.5000000000
     0.0000000000   0.5000000000   0.0000000000
     0.0833333333   0.6666666667   0.0000000000
     0.0000000000   0.5000000000   0.5000000000
     0.1666666667   0.5833333333   0.5000000000
     0.0000000000   0.7500000000   0.0000000000
     0.0833333333   0.9166666667   0.0000000000
     0.0000000000   0.7500000000   0.5000000000
     0.1666666667   0.8333333333   0.5000000000
     0.2500000000   0.0000000000   0.0000000000
     0.3333333333   0.1666666667   0.0000000000
     0.2500000000   0.0000000000   0.5000000000
     0.4166666667   0.0833333333   0.5000000000
     0.2500000000   0.2500000000   0.0000000000
     0.3333333333   0.4166666667   0.0000000000
     0.2500000000   0.2500000000   0.5000000000
     0.4166666667   0.3333333333   0.5000000000
     0.2500000000   0.5000000000   0.0000000000
     0.3333333333   0.6666666667   0.0000000000
     0.2500000000   0.5000000000   0.5000000000
     0.4166666667   0.5833333333   0.5000000000
     0.2500000000   0.7500000000   0.0000000000
     0.3333333333   0.9166666667   0.0000000000
     0.2500000000   0.7500000000   0.5000000000
     0.4166666667   0.8333333333   0.5000000000
     0.5000000000   0.0000000000   0.0000000000
     0.5833333333   0.1666666667   0.0000000000
     0.5000000000   0.0000000000   0.5000000000
     0.6666666667   0.0833333333   0.5000000000
     0.5000000000   0.2500000000   0.0000000000
     0.5833333333   0.4166666667   0.0000000000
     0.5000000000   0.2500000000   0.5000000000
     0.6666666667   0.3333333333   0.5000000000
     0.5000000000   0.5000000000   0.0000000000
     0.5833333333   0.6666666667   0.0000000000
     0.5000000000   0.5000000000   0.5000000000
     0.6666666667   0.5833333333   0.5000000000
     0.5000000000   0.7500000000   0.0000000000
     0.5833333333   0.9166666667   0.0000000000
     0.5000000000   0.7500000000   0.5000000000
     0.6666666667   0.8333333333   0.5000000000
     0.7500000000   0.0000000000   0.0000000000
     0.8333333333   0.1666666667   0.0000000000
     0.7500000000   0.0000000000   0.5000000000
     0.9166666667   0.0833333333   0.5000000000
     0.7500000000   0.2500000000   0.0000000000
     0.8333333333   0.4166666667   0.0000000000
     0.7500000000   0.2500000000   0.5000000000
     0.9166666667   0.3333333333   0.5000000000
     0.7500000000   0.5000000000   0.0000000000
     0.8333333333   0.6666666667   0.0000000000
     0.7500000000   0.5000000000   0.5000000000
     0.9166666667   0.5833333333   0.5000000000
     0.7500000000   0.7500000000   0.0000000000
     0.8333333333   0.9166666667   0.0000000000
     0.7500000000   0.7500000000   0.5000000000
     0.9166666667   0.8333333333   0.5000000000
Sorting the bands now:
We will read 80 distinct orbitals.
There are 0 core states and 80 valence states.
  EinsplineSetBuilder::ReadBands_ESHDF(EinsplineSetExtended<complex<double > >*
B-spline mesh factor is 1
B-spline mesh size is (28, 28, 80)
Maxmimum number of Gvecs 5059
MeshSize = (28, 28, 80)
  Valence state:  ti=  0  bi=  0 energy=-0.46423 k=(-0.0000,  0.0000,  0.0000) rank=0
  Valence state:  ti=  0  bi=  1 energy=-0.45240 k=(-0.0000,  0.0000,  0.0000) rank=0
  Valence state:  ti= 72  bi=  0 energy=-0.41037 k=( 0.0000,  0.3900,  0.0000) rank=0
  Valence state:  ti=1728  bi=  0 energy=-0.41037 k=( 0.3377,  0.1950, -0.0000) rank=0
  Valence state:  ti=1752  bi=  0 energy=-0.41037 k=( 0.3377, -0.1950, -0.0000) rank=0
  Valence state:  ti= 72  bi=  1 energy=-0.39964 k=( 0.0000,  0.3900,  0.0000) rank=0
  Valence state:  ti=1728  bi=  1 energy=-0.39964 k=( 0.3377,  0.1950, -0.0000) rank=0
  Valence state:  ti=1752  bi=  1 energy=-0.39964 k=( 0.3377, -0.1950, -0.0000) rank=0
  Valence state:  ti=1224  bi=  0 energy=-0.30643 k=( 0.6755,  0.7800,  0.0000) rank=0
  Valence state:  ti=1776  bi=  0 energy=-0.30643 k=( 0.3377,  0.9750,  0.0000) rank=0
  Valence state:  ti=1800  bi=  0 energy=-0.30643 k=( 0.3377,  0.5850,  0.0000) rank=0
  Valence state:  ti=1224  bi=  1 energy=-0.29780 k=( 0.6755,  0.7800,  0.0000) rank=0
  Valence state:  ti=1776  bi=  1 energy=-0.29780 k=( 0.3377,  0.9750,  0.0000) rank=0
  Valence state:  ti=1800  bi=  1 energy=-0.29780 k=( 0.3377,  0.5850,  0.0000) rank=0
  Valence state:  ti= 48  bi=  0 energy=-0.26724 k=( 0.0000,  0.7800,  0.0000) rank=0
  Valence state:  ti=1152  bi=  0 energy=-0.26724 k=( 0.6755,  0.3900, -0.0000) rank=0
  Valence state:  ti=1200  bi=  0 energy=-0.26724 k=( 0.6755,  1.1699,  0.0000) rank=0
  Valence state:  ti= 48  bi=  1 energy=-0.26293 k=( 0.0000,  0.7800,  0.0000) rank=0
  Valence state:  ti=1152  bi=  1 energy=-0.26293 k=( 0.6755,  0.3900, -0.0000) rank=0
  Valence state:  ti=1200  bi=  1 energy=-0.26293 k=( 0.6755,  1.1699,  0.0000) rank=0
  Valence state:  ti= 48  bi=  2 energy=-0.23460 k=( 0.0000,  0.7800,  0.0000) rank=0
  Valence state:  ti=1152  bi=  2 energy=-0.23460 k=( 0.6755,  0.3900, -0.0000) rank=0
  Valence state:  ti=1200  bi=  2 energy=-0.23460 k=( 0.6755,  1.1699,  0.0000) rank=0
  Valence state:  ti= 48  bi=  3 energy=-0.23132 k=( 0.0000,  0.7800,  0.0000) rank=0
  Valence state:  ti=1152  bi=  3 energy=-0.23132 k=( 0.6755,  0.3900, -0.0000) rank=0
  Valence state:  ti=1200  bi=  3 energy=-0.23132 k=( 0.6755,  1.1699,  0.0000) rank=0
  Valence state:  ti=1224  bi=  2 energy=-0.13150 k=( 0.6755,  0.7800,  0.0000) rank=0
  Valence state:  ti=1776  bi=  2 energy=-0.13150 k=( 0.3377,  0.9750,  0.0000) rank=0
  Valence state:  ti=1800  bi=  2 energy=-0.13150 k=( 0.3377,  0.5850,  0.0000) rank=0
  Valence state:  ti=1224  bi=  3 energy=-0.12861 k=( 0.6755,  0.7800,  0.0000) rank=0
  Valence state:  ti=1776  bi=  3 energy=-0.12861 k=( 0.3377,  0.9750,  0.0000) rank=0
  Valence state:  ti=1800  bi=  3 energy=-0.12861 k=( 0.3377,  0.5850,  0.0000) rank=0
  Valence state:  ti=1224  bi=  4 energy=-0.07885 k=( 0.6755,  0.7800,  0.0000) rank=0
  Valence state:  ti=1776  bi=  4 energy=-0.07885 k=( 0.3377,  0.9750,  0.0000) rank=0
  Valence state:  ti=1800  bi=  4 energy=-0.07885 k=( 0.3377,  0.5850,  0.0000) rank=0
  Valence state:  ti=1224  bi=  5 energy=-0.07664 k=( 0.6755,  0.7800,  0.0000) rank=0
  Valence state:  ti=1776  bi=  5 energy=-0.07664 k=( 0.3377,  0.9750,  0.0000) rank=0
  Valence state:  ti=1800  bi=  5 energy=-0.07664 k=( 0.3377,  0.5850,  0.0000) rank=0
  Valence state:  ti=  0  bi=  2 energy=-0.06603 k=(-0.0000,  0.0000,  0.0000) rank=0
  Valence state:  ti= 72  bi=  2 energy=-0.02012 k=( 0.0000,  0.3900,  0.0000) rank=0
  Valence state:  ti=1728  bi=  2 energy=-0.02012 k=( 0.3377,  0.1950, -0.0000) rank=0
  Valence state:  ti=1752  bi=  2 energy=-0.02012 k=( 0.3377, -0.1950, -0.0000) rank=0
  Valence state:  ti= 72  bi=  3 energy=-0.01630 k=( 0.0000,  0.3900,  0.0000) rank=0
  Valence state:  ti=1728  bi=  3 energy=-0.01630 k=( 0.3377,  0.1950, -0.0000) rank=0
  Valence state:  ti=1752  bi=  3 energy=-0.01630 k=( 0.3377, -0.1950, -0.0000) rank=0
  Valence state:  ti= 72  bi=  4 energy= 0.00034 k=( 0.0000,  0.3900,  0.0000) rank=0
  Valence state:  ti=1728  bi=  4 energy= 0.00034 k=( 0.3377,  0.1950, -0.0000) rank=0
  Valence state:  ti=1752  bi=  4 energy= 0.00034 k=( 0.3377, -0.1950, -0.0000) rank=0
  Valence state:  ti=  0  bi=  3 energy= 0.01060 k=(-0.0000,  0.0000,  0.0000) rank=0
  Valence state:  ti= 48  bi=  4 energy= 0.01647 k=( 0.0000,  0.7800,  0.0000) rank=0
  Valence state:  ti=1152  bi=  4 energy= 0.01647 k=( 0.6755,  0.3900, -0.0000) rank=0
  Valence state:  ti=1200  bi=  4 energy= 0.01647 k=( 0.6755,  1.1699,  0.0000) rank=0
  Valence state:  ti= 48  bi=  5 energy= 0.01862 k=( 0.0000,  0.7800,  0.0000) rank=0
  Valence state:  ti=1152  bi=  5 energy= 0.01862 k=( 0.6755,  0.3900, -0.0000) rank=0
  Valence state:  ti=1200  bi=  5 energy= 0.01862 k=( 0.6755,  1.1699,  0.0000) rank=0
  Valence state:  ti= 72  bi=  5 energy= 0.06742 k=( 0.0000,  0.3900,  0.0000) rank=0
  Valence state:  ti=1728  bi=  5 energy= 0.06742 k=( 0.3377,  0.1950, -0.0000) rank=0
  Valence state:  ti=1752  bi=  5 energy= 0.06742 k=( 0.3377, -0.1950, -0.0000) rank=0
  Valence state:  ti= 72  bi=  6 energy= 0.06932 k=( 0.0000,  0.3900,  0.0000) rank=0
  Valence state:  ti=1728  bi=  6 energy= 0.06932 k=( 0.3377,  0.1950, -0.0000) rank=0
  Valence state:  ti=1752  bi=  6 energy= 0.06932 k=( 0.3377, -0.1950, -0.0000) rank=0
  Valence state:  ti= 72  bi=  7 energy= 0.07194 k=( 0.0000,  0.3900,  0.0000) rank=0
  Valence state:  ti=1728  bi=  7 energy= 0.07194 k=( 0.3377,  0.1950, -0.0000) rank=0
  Valence state:  ti=1752  bi=  7 energy= 0.07194 k=( 0.3377, -0.1950, -0.0000) rank=0
  Valence state:  ti=1224  bi=  6 energy= 0.12424 k=( 0.6755,  0.7800,  0.0000) rank=0
  Valence state:  ti=1776  bi=  6 energy= 0.12424 k=( 0.3377,  0.9750,  0.0000) rank=0
  Valence state:  ti=1800  bi=  6 energy= 0.12424 k=( 0.3377,  0.5850,  0.0000) rank=0
  Valence state:  ti=  0  bi=  4 energy= 0.14306 k=(-0.0000,  0.0000,  0.0000) rank=0
  Valence state:  ti=  0  bi=  5 energy= 0.14306 k=(-0.0000,  0.0000,  0.0000) rank=0
  Valence state:  ti=  0  bi=  6 energy= 0.14377 k=(-0.0000,  0.0000,  0.0000) rank=0
  Valence state:  ti=  0  bi=  7 energy= 0.14377 k=(-0.0000,  0.0000,  0.0000) rank=0
  Valence state:  ti= 48  bi=  6 energy= 0.14983 k=( 0.0000,  0.7800,  0.0000) rank=0
  Valence state:  ti=1152  bi=  6 energy= 0.14983 k=( 0.6755,  0.3900, -0.0000) rank=0
  Valence state:  ti=1200  bi=  6 energy= 0.14983 k=( 0.6755,  1.1699,  0.0000) rank=0
  Valence state:  ti= 48  bi=  7 energy= 0.17629 k=( 0.0000,  0.7800,  0.0000) rank=0
  Valence state:  ti=1152  bi=  7 energy= 0.17629 k=( 0.6755,  0.3900, -0.0000) rank=0
  Valence state:  ti=1200  bi=  7 energy= 0.17629 k=( 0.6755,  1.1699,  0.0000) rank=0
  Valence state:  ti=1224  bi=  7 energy= 0.18091 k=( 0.6755,  0.7800,  0.0000) rank=0
  Valence state:  ti=1776  bi=  7 energy= 0.18091 k=( 0.3377,  0.9750,  0.0000) rank=0
  Valence state:  ti=1800  bi=  7 energy= 0.18091 k=( 0.3377,  0.5850,  0.0000) rank=0
 No rotations defined
    READBANDS::PREP   = 0.006158589007
    READBANDS::H5     = 0.331531657
    READBANDS::UNPACK = 0.02708810303
    READBANDS::FFT    = 0.3708232051
    READBANDS::PHASE  = 0.04786182899
    READBANDS::SPLINE = 0.569983497
    READBANDS::SUM    = 1.352780428
TIMER  EinsplineSetBuilder::ReadBands 1.360694225
   Using Identity for the LCOrbitalSet 
  Creating a new SPO set updet
  SlaterDetBuilder::putDeterminant(xmlNodePtr,int)
  BasisSetFactory::createBasisSet

 Building SPOset  with bspline basis set.
SPOSet parameters match in EinsplineSetBuilder:  cloning EinsplineSet object.
   Using Identity for the LCOrbitalSet 
  Creating a new SPO set downdet
  JastrowBuilder::addOneBody(xmlNodePtr)

  Using BsplineBuilder for one-body jastrow with B-spline functions
  BsplineJastrowBuilder::put(xmlNodePtr)
  BsplineJastrowBuilder::createOneBodyJastrow(xmlNodePtr)
  Distance table for AA: source/target = e
    PBC=bulk Orthorhombic=no
    Setting Rmax = 6.33805 Using bounding box/reduced coordinates with 
  ... ParticleSet::addTable Create Table #0 e_e
  Distance table for AB: source = ion0 target = e
    PBC=bulk Orthorhombic=no
    Setting Rmax = 6.33805 Using bonding box/reduced coordinates 
  ... ParticleSet::addTable Create Table #1 ion0_e
  ... ParticleSet::addTable Reuse Table #1 ion0_e
  BsplineFunctor::put(xmlNodePtr)
 size = 10 parameters 
 cusp = 0
 rcut = 6.4
Parameter     Name      Value
ce_0 -0.8269243054 1 1  ON 0
ce_1 -0.6979354501 1 1  ON 1
ce_2 -0.5859097154 1 1  ON 2
ce_3 -0.4357887352 1 1  ON 3
ce_4 -0.3021893751 1 1  ON 4
ce_5 -0.2006991622 1 1  ON 5
ce_6 -0.1254697295 1 1  ON 6
ce_7 -0.06755847334 1 1  ON 7
ce_8 -0.02921669005 1 1  ON 8
ce_9 -0.008280690139 1 1  ON 9
Adding function of type 0 for atom 0.
Adding function of type 0 for atom 1.
Adding function of type 0 for atom 2.
Adding function of type 0 for atom 3.
Adding function of type 0 for atom 4.
Adding function of type 0 for atom 5.
Adding function of type 0 for atom 6.
Adding function of type 0 for atom 7.
Adding function of type 0 for atom 8.
Adding function of type 0 for atom 9.
Adding function of type 0 for atom 10.
Adding function of type 0 for atom 11.
Adding function of type 0 for atom 12.
Adding function of type 0 for atom 13.
Adding function of type 0 for atom 14.
Adding function of type 0 for atom 15.
Adding function of type 0 for atom 16.
Adding function of type 0 for atom 17.
Adding function of type 0 for atom 18.
Adding function of type 0 for atom 19.
Adding function of type 0 for atom 20.
Adding function of type 0 for atom 21.
Adding function of type 0 for atom 22.
Adding function of type 0 for atom 23.
Adding function of type 0 for atom 24.
Adding function of type 0 for atom 25.
Adding function of type 0 for atom 26.
Adding function of type 0 for atom 27.
Adding function of type 0 for atom 28.
Adding function of type 0 for atom 29.
Adding function of type 0 for atom 30.
Adding function of type 0 for atom 31.
Adding function of type 0 for atom 32.
Adding function of type 0 for atom 33.
Adding function of type 0 for atom 34.
Adding function of type 0 for atom 35.
Adding function of type 0 for atom 36.
Adding function of type 0 for atom 37.
Adding function of type 0 for atom 38.
Adding function of type 0 for atom 39.
Adding function of type 0 for atom 40.
Adding function of type 0 for atom 41.
Adding function of type 0 for atom 42.
Adding function of type 0 for atom 43.
Adding function of type 0 for atom 44.
Adding function of type 0 for atom 45.
Adding function of type 0 for atom 46.
Adding function of type 0 for atom 47.
Adding function of type 0 for atom 48.
Adding function of type 0 for atom 49.
Adding function of type 0 for atom 50.
Adding function of type 0 for atom 51.
Adding function of type 0 for atom 52.
Adding function of type 0 for atom 53.
Adding function of type 0 for atom 54.
Adding function of type 0 for atom 55.
Adding function of type 0 for atom 56.
Adding function of type 0 for atom 57.
Adding function of type 0 for atom 58.
Adding function of type 0 for atom 59.
Adding function of type 0 for atom 60.
Adding function of type 0 for atom 61.
Adding function of type 0 for atom 62.
Adding function of type 0 for atom 63.
  JastrowBuilder::addTwoBody(xmlNodePtr)
  BsplineJastrowBuilder::put(xmlNodePtr)
  ... ParticleSet::addTable Reuse Table #0 e_e
  ... ParticleSet::addTable Reuse Table #0 e_e
  BsplineJastrowBuilder adds a functor with cusp = -0.25
  BsplineFunctor::put(xmlNodePtr)
 size = 10 parameters 
 cusp = -0.25
 rcut = 6.4
Parameter     Name      Value
uu_0 0.4711034598 1 1  ON 0
uu_1 0.3477682534 1 1  ON 1
uu_2 0.2444507503 1 1  ON 2
uu_3 0.167705049 1 1  ON 3
uu_4 0.1117919405 1 1  ON 4
uu_5 0.0732871982 1 1  ON 5
uu_6 0.04620784578 1 1  ON 6
uu_7 0.02729812651 1 1  ON 7
uu_8 0.01452638626 1 1  ON 8
uu_9 0.006319218188 1 1  ON 9
  BsplineJastrowBuilder adds a functor with cusp = -0.5
  BsplineFunctor::put(xmlNodePtr)
 size = 10 parameters 
 cusp = -0.5
 rcut = 6.4
Parameter     Name      Value
ud_0 0.6714508243 1 1  ON 0
ud_1 0.443347866 1 1  ON 1
ud_2 0.2901393541 1 1  ON 2
ud_3 0.1889089821 1 1  ON 3
ud_4 0.1227261701 1 1  ON 4
ud_5 0.07930574137 1 1  ON 5
ud_6 0.04958333177 1 1  ON 6
ud_7 0.02924651889 1 1  ON 7
ud_8 0.01515786303 1 1  ON 8
ud_9 0.006069726798 1 1  ON 9
  HamiltonianPool::put
  QMCHamiltonian::addOperator Kinetic to H, physical Hamiltonian 
  ForceBase::ForceBase
  ... ParticleSet::addTable Reuse Table #0 e_e
  CoulombPBCAATemp::CoulombPBCAATemp
  ... ParticleSet::addTable Reuse Table #0 e_e

  Creating CoulombHandler with the optimal breakup. 
  KContainer initialised with cutoff 12.07976777
 finding kc:  2.366659649 , -1
  LRBreakp parameter Kc =2.366659649
    Continuum approximation in k = [12.07976777,946.6638595)
   PBCAA self-interaction term -61.36837909
   PBCAA total constant -203.9505391
  Maximum K shell 61
  Number of k vectors 830
  Fixed Coulomb potential for e
    e-e Madelung Const. =-0.08656053146
    Vtot     =0
  QMCHamiltonian::addOperator ElecElec to H, physical Hamiltonian 
  Creating Coulomb potential ion0-ion0
  ForceBase::ForceBase
  Distance table for AA: source/target = ion0
    PBC=bulk Orthorhombic=no
    Setting Rmax = 6.33805 Using bounding box/reduced coordinates with 
  ... ParticleSet::addTable Create Table #0 ion0_ion0
  CoulombPBCAATemp::CoulombPBCAATemp
  ... ParticleSet::addTable Reuse Table #0 ion0_ion0
  Clone CoulombHandler. 
   PBCAA self-interaction term -245.4735164
   PBCAA total constant -388.0556764
  Maximum K shell 61
  Number of k vectors 830
  Fixed Coulomb potential for ion0
    e-e Madelung Const. =-0.08656053146
    Vtot     =-270.825436
  QMCHamiltonian::addOperator IonIon to H, physical Hamiltonian 

  ECPotential builder for pseudopotential 

  Adding pseudopotential for C
   Linear grid  ri=0 rf=10 npts = 10001
    ECPComponentBuilder::buildSemiLocalAndLocal 
    Assuming Hartree unit
   Number of angular momentum channels 2
   Maximum angular momentum channel 1
   Creating a Linear Grid Rmax=1.7
  Using global grid with delta = 0.001
   Making L=1 a local potential with a radial cutoff of 9.998
  NonLocalECPComponent::resize_warrays 
    Non-local pseudopotential parameters
    Maximum angular mementum = 0
    Number of non-local channels = 1
       l(0)=0
    Cutoff radius = 1.7
    Spherical grids and weights: 
                        1                 0                 0       0.08333333333
                       -1   1.224646799e-16                 0       0.08333333333
             0.4472135955       0.894427191                 0       0.08333333333
            -0.4472135955      0.7236067977      0.5257311121       0.08333333333
             0.4472135955      0.2763932023      0.8506508084       0.08333333333
            -0.4472135955     -0.2763932023      0.8506508084       0.08333333333
             0.4472135955     -0.7236067977      0.5257311121       0.08333333333
            -0.4472135955      -0.894427191   1.095357397e-16       0.08333333333
             0.4472135955     -0.7236067977     -0.5257311121       0.08333333333
            -0.4472135955     -0.2763932023     -0.8506508084       0.08333333333
             0.4472135955      0.2763932023     -0.8506508084       0.08333333333
            -0.4472135955      0.7236067977     -0.5257311121       0.08333333333
    Maximum cutoff radius 1.7
  ForceBase::ForceBase
  ... ParticleSet::addTable Reuse Table #1 ion0_e
  CoulombPBCABTemp::CoulombPBCABTemp
  ... ParticleSet::addTable Reuse Table #1 ion0_e
  Clone CoulombHandler. 
   Constant of PBCAB 285.1643201
  Maximum K shell 61
  Number of k vectors 830
    CoulombPBCABTemp::add 
 Setting a linear grid=[0,6.338046963) number of grid =6339
    Creating the short-range pseudopotential for species 0
  QMCHamiltonian::addOperator LocalECP to H, physical Hamiltonian 
  ForceBase::ForceBase
  ... ParticleSet::addTable Reuse Table #1 ion0_e
  ... ParticleSet::addTable Reuse Table #1 ion0_e

  Using NonLocalECP potential 
    Maximum grid on a sphere for NonLocalECPotential: 12
  QMCHamiltonian::addOperator NonLocalECP to H, physical Hamiltonian 

  QMCHamiltonian::add2WalkerProperty added
    5 to P::PropertyList 
    0 to P::Collectables 
    starting Index of the observables in P::PropertyList = 9
  ... ParticleSet::addTable Reuse Table #0 ion0_ion0
=========================================================
 Summary of QMC systems 
=========================================================
ParticleSetPool has: 

  ParticleSet e : 0 128 256 

    256

    u      0.8007602858       0.588708947       12.26878839
    u        9.06504491       15.47301338       11.84551228
    u     -0.5478468634       3.573349165      0.2546397166
    u      0.3493221087       1.682979363         0.1646677
    u      0.1717394156       1.060026718       6.314766358
    u       9.480859921       15.50265369       7.204640831
    u       2.971926571        1.63273119       7.145302187
    u       2.474629861       1.926046765       5.448624112
    u      -2.124446086       5.069591542       12.50844426
    u      -2.736905272       4.792035592       12.04324256
    u      -2.275823656       7.570644567      0.6449007794
    u      -1.948586366       7.217410807      0.8702493099
    u      -1.361242917       4.289404072       5.943697177
    u      -1.807133864        3.33506831       5.701645993
    u      -1.062233747       5.424932503        6.18841343
    u     0.05093045552       6.256258535       6.943472617
    u      -3.706465479       8.382810394      0.3931865147
    u      -4.186319834       7.399730644       11.96377424
    u      -4.506701774       10.15561777       11.78716861
    u      -4.563788464       9.992925914      0.7658053129
    u      -4.482734966        9.05226404       6.701856478
    u      -4.172433721       7.230333708       6.831350273
    u      -2.846173798       8.669955619       6.931326479
    u      -2.458069488       8.399730273       6.710616451
    u       11.02012719       12.03546136      0.8845839747
    u       11.78942511        11.1482334       12.17361113
    u      -8.008758213       15.02130204      0.1562215558
    u        -7.3891726        15.7390569       12.47076037
    u      -6.155406253       12.11049672       7.029994605
    u      -6.660988488       11.99490623       7.360924352
    u      -3.627092045       13.29811252       6.039893704
    u      -4.915011339       14.46357918       6.248810398
    u       3.584760221      0.1179049171       12.62189888
    u       5.211426175     0.08030623425      0.9127758187
    u        4.60281725       2.961898683        11.6393495
    u       5.186929791       3.553679134       12.34098019
    u       4.577540239       1.028249225       6.639710912
    u       5.577261938      0.3472423023        6.75654842
    u       6.917258532      0.4290079309       6.899728404
    u       6.330119054       1.426576252       7.191773413
    u       3.370345407       4.246192405      0.1196830849
    u       2.372438081       4.378085063       1.014320091
    u       2.142499191       7.686620917      0.4153592281
    u       2.190928069       7.373708026        11.8398984
    u       1.387017453       3.876881793       6.838196044
    u        2.62914282       3.561402378       7.256682852
    u       4.001247276        4.58285971       6.004675033
    u       4.126340186       5.527314172        7.26208291
    u     -0.4143711546       7.746361276       11.73467831
    u     -0.1220210354       9.079400294       12.37449809
    u     -0.3436897745       11.43689604      0.7425049855
    u      0.8074363637        10.4601804      0.6502876727
    u     -0.1027052601       8.789068732        5.55997253
    u     -0.4969401404       7.185456534       6.724465372
    u       3.336837838       9.089416108       6.526252894
    u       2.925199197       10.24392906       6.619301495
    u      -3.155860743       11.59158616       12.20484529
    u      -2.701001019       11.35971583      0.6990194919
    u      -1.512534988       15.15800214       12.09181906
    u      -1.736238806       14.02196928       12.17751772
    u      -2.961501501       11.25243932       6.096588639
    u      -1.402453878       12.60997363       6.181031082
    u      0.5895974848       13.39777324       7.235407644
    u      0.6260113185        14.0738211       6.923257598
    u       8.266948314      0.1156847397       12.41340948
    u     -0.3746303752       15.10570677         12.634941
    u       9.500184788       3.616312422       12.17856133
    u       10.10636925       2.012505261       12.44355419
    u     -0.2690672763       15.11101833       6.621421114
    u       9.626117562      0.2770075262       5.352197148
    u       10.71390182       1.253700537       5.780237645
    u       11.27226505      0.5005783431       5.773718032
    u       7.106158931       4.054132065       11.61017177
    u       6.915245732       4.456172522       11.69298321
    u       6.701830309       5.710265666       12.40680849
    u       6.491516336        6.21989304      0.8217107031
    u        6.26959913       4.150984464       5.538771007
    u       6.660046076       4.913620699       5.819378276
    u       8.990042441       5.915474785       5.466616382
    u       9.979859718       4.805121312       5.726063381
    u       5.240395191        8.30739603       11.81413252
    u       4.011322303       7.294593829      0.4063773794
    u       5.062559116       10.21448667       11.83521351
    u       4.441454659       9.688006255     0.03112062326
    u       3.826878594       8.378477927       5.729459526
    u       4.441895526       7.364483024       7.133100439
    u       7.331212386       9.712852908       5.374213394
    u       5.985905489       9.748425099       6.114653008
    u       3.366622276         11.873164      0.1595380516
    u       2.197965431       13.01141454       12.15011184
    u       2.755679823       14.16487767       11.89904462
    u       2.111739044        15.7705244       12.35247707
    u       2.655997312       12.28382378       7.340238434
    u       2.752176865       11.57413288       7.181873443
    u       5.118823714       12.97698909       5.481903711
    u       5.386209376       13.80130788       7.025428035
    u        14.2160529      0.4273013089      0.9496843074
    u         4.1012348       15.21174172       12.47148517
    u       14.37065581       3.673416629       12.62343067
    u       13.12932611       3.127677057       0.528720015
    u       3.602392266       15.96272483       6.516901173
    u       4.340162669       15.16333637       6.735580561
    u       15.32676172       1.473548684       6.818449793
    u       16.82963144       1.751720806       7.164222228
    u       12.53249118       4.103327514      0.5735539995
    u        11.0427709       4.341569228       11.83146324
    u       10.89846724       7.123909775      0.6734148464
    u       12.17326653        7.30935648      0.7073409914
    u       12.00097831       3.020847573       6.328904132
    u       10.80512342       3.408292534       6.032224526
    u       14.71852506        4.67508107       6.048181593
    u       13.39781258       5.569072169       5.440243375
    u        8.33430092       8.371103184      0.3432670225
    u       10.00349104       8.689384807       12.16609071
    u       10.03162564       9.999896631       12.40763136
    u       9.672199981       11.05526851       0.958059474
    u       9.603771923        8.60975615       5.468733819
    u       10.33421084       8.337957192       6.430634294
    u        10.6320207       9.710933283       6.593109936
    u       10.55372039       9.425264546        6.33750883
    u       6.740304338       12.47655916      0.9713500576
    u       7.083780049       11.44331414      0.8556687692
    u       6.803295171       14.59113648       11.63105795
    u       6.508195611       13.85754567       12.35384373
    u       6.015997077       11.91054102       6.786580644
    u       6.972653166       12.87808189       7.060912971
    u       8.879617346       13.37346489       5.351888503
    u        8.91193147       14.30188831       6.822639022
    d     -0.1891584964       1.009437136       12.36153267
    d      -8.589227879       15.68345578       11.99607121
    d      0.1085436806       2.489366509       1.050495102
    d      0.1951166503       3.701750418       12.38911873
    d       9.694524879       15.33660112       5.706291305
    d      -8.715391336       15.79536109       7.180450538
    d       1.301032681       1.268780456       6.023861113
    d       2.541314794      0.3412275768       6.015066608
    d       15.62785756       3.904216549      0.8456314865
    d      -1.643878063       3.530734694       12.01131101
    d      -2.923228728       7.254962287      0.7091045392
    d      -1.761529735       6.983909101      0.8731056711
    d       15.62214572       3.806673329       5.517079265
    d       16.29794889       3.108468869       6.893023657
    d      0.7708494451       5.108192339       5.637564174
    d       -1.05596614       5.535905695        6.44421312
    d       13.23952208        8.70477767       12.20339799
    d       13.96281041       8.026091974       1.073646307
    d      -5.390150779       11.02226235       11.94929435
    d      -4.552061635       11.80259805      0.1301431441
    d       13.39861584       7.519441297       7.085533364
    d      -3.899624268       7.580286799       6.940594831
    d      -2.684479891       8.512606713        6.82817211
    d      -1.942691191        8.54465538       6.865588407
    d      -5.968625722       11.74645113      0.1555847402
    d      -6.391340459       12.92284809       12.34896043
    d       -7.32900205       15.22181596       11.76819169
    d       -7.37658076       14.57137174       11.69905351
    d       10.61963936       12.44259831       6.433372905
    d      -7.189864094       12.98553936       6.880943514
    d      -3.757497732       13.85754152       5.926517563
    d      -5.572431162       13.03892719       6.731261222
    d        5.20572414       0.477710502       11.89011673
    d      -4.353288521       15.63611169       11.76009416
    d       4.293836152       3.242225255        11.8299776
    d       4.908788273       1.744194404      0.4490485421
    d       4.761894357      0.2497160839        5.29928037
    d       3.707725498      0.3434289825       5.955955087
    d       6.984675016      0.4896748153        6.99081019
    d       7.657011689       1.400997385       7.167008591
    d       1.278496927       3.982890621       12.44059446
    d       2.756559844       3.238112507      0.5866403277
    d         3.3576833       6.417145569     0.02601467347
    d       1.498262474       7.305144775       12.33128028
    d       3.190438128       3.569092632       6.779731246
    d         1.2659753       4.099987015       6.177089548
    d       3.860695804       4.708767435       6.640081692
    d       4.983512325       4.615915294       5.649774762
    d       0.340897196       8.335035211      0.9795337201
    d      0.9097826704       7.568417898      0.2974698772
    d      0.4549733944       11.27322378      0.8145190289
    d      0.7418633551       11.43078017      0.3571408022
    d     -0.6058462253       8.730565714       6.913614285
    d     -0.8073804746       7.376557192       6.539333582
    d       1.919953729       8.743630891        7.08672974
    d       2.602213436       8.428697521       5.968143054
    d      -2.605595749        11.8645654        1.01353119
    d      -1.339750811       12.30442219       12.31105784
    d      -2.776763081       13.79613456       12.61444958
    d      -2.257734734       14.27992494        11.7221468
    d      -2.227723622       11.36958665       5.541638862
    d      -3.240974838       12.08407633       6.899823745
    d     -0.4011422388       12.50343278       6.713762562
    d     -0.3504039674       12.53943144       5.843638442
    d        10.1880214      0.5404926341      0.2765961695
    d       9.594078559     0.06897811006       1.031318638
    d         9.2550445       3.739617261       0.199510807
    d       9.625905072       2.122195288       11.82067755
    d       9.510934851      0.0710083427       7.389232984
    d      0.3339698121        15.9735258       5.326554989
    d       11.42495197       2.389148027       6.205888886
    d       12.35881869       2.016441608       6.744023407
    d       7.972470273       4.182198717      0.3713537651
    d        7.39000674       3.144985927       12.22531937
    d       6.247920182       6.711297061      0.7892238878
    d       6.344432918         6.5347411      0.8499250373
    d       7.483171599       4.692614321       5.663439959
    d       7.999549927       3.947167581       6.020983816
    d       8.753911483        4.81033898       7.072566572
    d       8.454456528       5.550995238       6.972717711
    d       5.079691337       7.072573531     0.05709837561
    d       4.800877013       8.709057235       11.83679182
    d       3.916776447       11.48587924      0.2445162638
    d       4.176733314       11.59654843      0.4436492613
    d       4.769119351        7.14887082       6.901336744
    d       5.444318817       7.701849232       5.706321215
    d        7.94563161       9.394863427       5.874962719
    d       6.102144903       9.737325074       6.861813244
    d       1.567878239       11.90900277      0.7410869508
    d        1.25436938       12.14996176        12.6315999
    d       2.964267576       14.42368516      0.7915170447
    d       2.887958523       14.17673459      0.6976265277
    d        1.32109567       12.36444637       6.081109166
    d       1.467774977       11.44350989       6.247252652
    d       4.580844387       12.49755106       6.873085367
    d       5.583415992       13.13404139       5.892077572
    d        5.67973621       16.07035456       12.37000865
    d        13.5931473     0.05886606858       1.010320206
    d       12.99001077       2.402000611      0.3822931036
    d       13.58088088       3.328052476      0.7759138136
    d       12.89140376      0.1416704542       6.419744283
    d       3.739371081       15.77052657       5.883774786
    d       15.79376334      0.4743776052       5.931982778
    d       15.93260764       1.230603996       7.348748285
    d       11.01887453       4.634725032      0.6442237788
    d       11.29518827       3.977831365       1.020180009
    d       10.55375645       6.723581869       12.64980561
    d       11.84278686       5.778530133       12.19250491
    d       11.11425331       4.762795809       5.746283865
    d       11.60076613       4.637814193       7.221765316
    d       13.63161482       4.451343496       6.791431992
    d       14.02355281       4.554346488       7.032739493
    d       8.609316808       7.243660716       12.55610205
    d       8.904246232       7.516011608       11.83694638
    d       8.376960679       10.86657904       12.14482168
    d       9.528907597       9.691286316        12.6593683
    d       8.873188111       7.077760742       6.453569499
    d       8.487498415       8.178336019       7.027448515
    d        11.1049999       8.934173607       5.522442241
    d       11.07087327       9.308119953       5.423864851
    d         7.5984116       12.66009844      0.6592417439
    d       7.614888893       12.75069561      0.5487928529
    d       7.509531948       14.32056222      0.8176570805
    d       6.057303887       15.24739008      0.2825337074
    d       7.951564771        11.6468713       6.448319373
    d       6.349739112       11.24749216       6.586517091
    d       8.494666688       13.85496635       6.902085074
    d       9.376084408       14.15316384       7.125332195

  ParticleSet ion0 : 0 64 

    64

    C                 0                 0                 0
    C  -2.325439852e-12       2.685252614                 0
    C                 0                 0       6.338046963
    C       2.325496979       1.342626307       6.338046963
    C      -2.325496979       4.027878921                 0
    C      -2.325496979       6.713131535                 0
    C      -2.325496979       4.027878921       6.338046963
    C   2.325809056e-12       5.370505228       6.338046963
    C      -4.650993958       8.055757841                 0
    C      -4.650993958       10.74101046                 0
    C      -4.650993958       8.055757841       6.338046963
    C      -2.325496979       9.398384148       6.338046963
    C      -6.976490937       12.08363676                 0
    C      -6.976490937       14.76888938                 0
    C      -6.976490937       12.08363676       6.338046963
    C      -4.650993958       13.42626307       6.338046963
    C       4.650993958                 0                 0
    C       4.650993958       2.685252614                 0
    C       4.650993958                 0       6.338046963
    C       6.976490937       1.342626307       6.338046963
    C       2.325496979       4.027878921                 0
    C       2.325496979       6.713131535                 0
    C       2.325496979       4.027878921       6.338046963
    C       4.650993958       5.370505228       6.338046963
    C   1.776356839e-15       8.055757841                 0
    C  -2.323663495e-12       10.74101046                 0
    C   1.776356839e-15       8.055757841       6.338046963
    C       2.325496979       9.398384148       6.338046963
    C      -2.325496979       12.08363676                 0
    C      -2.325496979       14.76888938                 0
    C      -2.325496979       12.08363676       6.338046963
    C   2.327585413e-12       13.42626307       6.338046963
    C       9.301987917                 0                 0
    C       9.301987917       2.685252614                 0
    C       9.301987917                 0       6.338046963
    C        11.6274849       1.342626307       6.338046963
    C       6.976490937       4.027878921                 0
    C       6.976490937       6.713131535                 0
    C       6.976490937       4.027878921       6.338046963
    C       9.301987917       5.370505228       6.338046963
    C       4.650993958       8.055757841                 0
    C       4.650993958       10.74101046                 0
    C       4.650993958       8.055757841       6.338046963
    C       6.976490937       9.398384148       6.338046963
    C       2.325496979       12.08363676                 0
    C       2.325496979       14.76888938                 0
    C       2.325496979       12.08363676       6.338046963
    C       4.650993958       13.42626307       6.338046963
    C       13.95298187                 0                 0
    C       13.95298187       2.685252614                 0
    C       13.95298187                 0       6.338046963
    C       16.27847885       1.342626307       6.338046963
    C        11.6274849       4.027878921                 0
    C        11.6274849       6.713131535                 0
    C        11.6274849       4.027878921       6.338046963
    C       13.95298187       5.370505228       6.338046963
    C       9.301987917       8.055757841                 0
    C       9.301987917       10.74101046                 0
    C       9.301987917       8.055757841       6.338046963
    C        11.6274849       9.398384148       6.338046963
    C       6.976490937       12.08363676                 0
    C       6.976490937       14.76888938                 0
    C       6.976490937       12.08363676       6.338046963
    C       9.301987917       13.42626307       6.338046963

  Hamiltonian h0
  Kinetic         Kinetic energy
  ElecElec        CoulombPBCAA potential: e_e
  IonIon          CoulombPBCAA potential: ion0_ion0
  LocalECP        CoulombPBCAB potential source: ion0
  NonLocalECP     NonLocalECPotential: ion0

=========================================================
  Start VMCSingleOMP
  File Root ref.s000 append = no 
=========================================================
  Walker Check Points are dumped every 90 block.
  Walker Samples are dumped every 10 steps.
  timestep = 2
  blocks = 8
  steps = 10
  substeps = 1
  current = 0
  walkers = 0
  Adding 8 walkers to 0 existing sets
  Total number of walkers: 1024
  Total weight: 1024
  Resetting Properties of the walkers 1 x 14
  CloneManager::makeClones makes 8 clones for W/Psi/H.
  Cloning methods for both Psi and H are used
  Initial partition of walkers 0 1 2 3 4 5 6 7 8 
  PbyP moves with drift, using VMCUpdatePbyPWithDriftFast

  Samples are dumped in memory every 10 steps 
  Total Sample Size   =8192
  Sample Size per node=64
    Sample size for thread 0 = 8
    Sample size for thread 1 = 8
    Sample size for thread 2 = 8
    Sample size for thread 3 = 8
    Sample size for thread 4 = 8
    Sample size for thread 5 = 8
    Sample size for thread 6 = 8
    Sample size for thread 7 = 8
DiracDeterminantBase::buffer               178.4177         374784       0.000476055      0.174236 TIMER
DiracDeterminantBase::inverse                6.0290           4096       0.001471935      0.005888 TIMER
DiracDeterminantBase::ratio                160.5371      298474682       0.000000538      0.156775 TIMER
DiracDeterminantBase::spoval              5111.2576      250761756       0.000020383      4.991463 TIMER
DiracDeterminantBase::spovgl              2099.7819       23857822       0.000088012      2.050568 TIMER
DiracDeterminantBase::update               271.9907        7775586       0.000034980      0.265616 TIMER
EinsplineSetExtended::VGL                 2041.0658       23853726       0.000085566      1.993228 TIMER
EinsplineSetExtended::VGLMatrix             42.6104           4096       0.010402920      0.041612 TIMER
EinsplineSetExtended::ValueOnly           4957.4820      250761756       0.000019770      4.841291 TIMER
Hamiltonian::ElecElec                      101.8557          93184       0.001093060      0.099468 TIMER
Hamiltonian::IonIon                          0.0603          93184       0.000000647      0.000059 TIMER
Hamiltonian::Kinetic                         0.4147          93184       0.000004450      0.000405 TIMER
Hamiltonian::LocalECP                       60.1762          93184       0.000645778      0.058766 TIMER
Hamiltonian::NonLocalECP                  17494.7881          93184       0.187744550     17.084754 TIMER
ParticleSet::makeMove                      970.3750       23853726       0.000040680      0.947632 TIMER
ParticleSet::makeMoveOnSphere                0.0000              0       0.000000000      0.000000 TIMER
VMCUpdatePbyP::advance                    26248.7883          92160       0.284817581     25.633582 TIMER
VMCUpdatePbyP::energy                     17456.1271          92160       0.189411102     17.046999 TIMER
VMCUpdatePbyP::movePbyP                   4058.0814          92160       0.044033001      3.962970 TIMER
VMCUpdatePbyP::updateMBO                  2224.9161          92160       0.024141885      2.172770 TIMER
libeinspline                              4840.7548      275139770       0.000017594      4.727300 TIMER
====================================================
  SimpleFixedNodeBranch::finalize after a VMC block
    QMC counter        = 0
    time step          = 2
    reference energy   = -363.895
    reference variance = 3.5923
====================================================
  QMC Execution time = 29.9111144 secs 
Creating DMCMP for the qmc driver

=========================================================
  Start DMCOMP
  File Root ref.s001 append = no 
=========================================================
  Walker Check Points are dumped every 510 block.
  Walker Samples are dumped every 510 steps.
  timestep = 0.02
  blocks = 50
  steps = 10
  substeps = 1
  current = 0
  walkers = 8
  Using the current 8 walkers.
  Total number of walkers: 1024
  Total weight: 1024
  Resetting Properties of the walkers 1 x 14
  EstimatorManager::add replace LocalEnergy estimator.
  DMCOMP::resetUpdateEngines
  Cannot make clones again. Use existing 8 clones
  Creating WalkerController: target  number of walkers = 8192
  Using WalkerControlMPI for dynamic population control.
  START ALL OVER 
  WalkerControlBase parameters 
    maxCopy = 2
  QMC counter      = 1
  time step        = 0.02
  effective time step = 0.02
  trial energy     = -363.8947065
  reference energy = -363.8947065
  Feedback = 1
  reference variance = 3.592301798
  target walkers = 8192
  branch cutoff = 50 75
  Max and mimum walkers per node= 129 13
  QMC Status (BranchMode) = 00001101
  Initial partition of walkers on a node: 0 8 16 24 32 40 48 56 64 
  Updates by particle-by-particle moves using fast gradient version 
  DMC moves are rejected when a node crossing is detected
SimpleFixedNodeBranch::checkParameters 
  Average Energy of a population  = -363.932
  Energy Variance = 3.54492

  Fluctuating population
  Persisent walkers are killed after 1 MC sweeps
  BranchInterval = 1
  Steps per block = 10
  Number of blocks = 50

  DMC Engine Initialization = 2.994570293 secs 

 Warmup is completed after 100

  TauEff     = 0.01969529718
 TauEff/Tau = 0.9847648589
  Etrial     = -364.864674
 Running average of energy = -364.8279035
                  Variance = 12.68465682
branch cutoff = 125 187.5
DMCUpdatePbyP::advance                    1266730.4587         512000       2.474082927   1237.041464 TIMER
DMCUpdatePbyP::energy                     793027.4984        4196372       0.188979313    774.440916 TIMER
DMCUpdatePbyP::movePbyP                   225184.8555        4196372       0.053661795    219.907085 TIMER
DMCUpdatePbyP::updateMBO                  133946.3864        5859753       0.022858709    130.807018 TIMER
DiracDeterminantBase::buffer              8519.0357       16901804       0.000504031      8.319371 TIMER
DiracDeterminantBase::inverse              138.1950          99932       0.001382890      0.134956 TIMER
DiracDeterminantBase::ratio               7416.0374    13467985554       0.000000551      7.242224 TIMER
DiracDeterminantBase::spoval              229632.5938    11311822092       0.000020300    224.250580 TIMER
DiracDeterminantBase::spovgl              93695.1537     1078148081       0.000086904     91.499173 TIMER
DiracDeterminantBase::update              34239.6549     1078677215       0.000031742     33.437163 TIMER
EinsplineSetExtended::VGL                 91749.6622     1078031765       0.000085108     89.599279 TIMER
EinsplineSetExtended::VGLMatrix           1214.0141         116316       0.010437206      1.185561 TIMER
EinsplineSetExtended::ValueOnly           222722.3846    11311822092       0.000019689    217.502329 TIMER
Hamiltonian::ElecElec                     4616.4599        4204564       0.001097964      4.508262 TIMER
Hamiltonian::IonIon                          2.7454        4204564       0.000000653      0.002681 TIMER
Hamiltonian::Kinetic                        19.2862        4204564       0.000004587      0.018834 TIMER
Hamiltonian::LocalECP                     2737.4512        4204564       0.000651067      2.673292 TIMER
Hamiltonian::NonLocalECP                  787185.9100        4204564       0.187221769    768.736240 TIMER
ParticleSet::makeMove                     44198.2043     1078031765       0.000040999     43.162309 TIMER
ParticleSet::makeMoveOnSphere                0.0000              0       0.000000000      0.000000 TIMER
VMCUpdatePbyP::advance                       0.0000              0       0.000000000      0.000000 TIMER
VMCUpdatePbyP::energy                        0.0000              0       0.000000000      0.000000 TIMER
VMCUpdatePbyP::movePbyP                      0.0000              0       0.000000000      0.000000 TIMER
VMCUpdatePbyP::updateMBO                     0.0000              0       0.000000000      0.000000 TIMER
WalkerControlMPI::branch                  7154.4512          63872       0.112012325      6.986769 TIMER
WalkerControlMPI::loadbalance              902.8646          63872       0.014135530      0.881704 TIMER
WalkerControlMPI::pre-loadbalance         6251.2648          63872       0.097871755      6.104751 TIMER
libeinspline                              217229.1044    12404742305       0.000017512    212.137797 TIMER
====================================================
  SimpleFixedNodeBranch::finalize after a DMC block
    QMC counter                   = 1
    time step                     = 0.02
    effective time step           = 0.019695
    trial energy                  = -364.954
    reference energy              = -364.961
    reference variance            = 12.6847
    target walkers                = 8192
    branch cutoff                 = 125 187.5
    Max and mimum walkers per node= 129 13
    Feedback                      = 1
    QMC Status (BranchMode)       = 00001111
====================================================
  QMC Execution time = 1384.828119 secs 
  Total Execution time = 1414.746302 secs

=========================================================
  A new xml input file : ref.s001.cont.xml
Application 75634 resources: utime ~1287797s, stime ~20654s
