  Input file(s): optm_vmc_dmc.xml 

=====================================================
                    QMCPACK 1.0.0 

  (c) Copyright 2003-  QMCPACK developers            

  Subversion branch 6312
  Last modified     2014-05-19 15:22:38 +0000 (Mon, 19 May 2014)
=====================================================
  Global options 
  async_swap=0 : using blocking send/recv for walker swaps 

  MPI Nodes            = 32
  MPI Nodes per group  = 32
  MPI Group ID         = 0
  OMP_NUM_THREADS      = 16
  Input XML = optm_vmc_dmc.xml

  Project = H2O
  date    = 2014-07-16 01:58:57 UTC
  host    = Q02-I5-J01.vesta.itd
  user    = mmorales

  DO NOT READ DENSITY
  Offset for the random number seeds based on time 97
  Random number offset = 97  seeds = 523-4507
  ParticleSetPool::put
  Creating e particleset
  XMLParticleParser::putSpecial
  All the species have the same mass 1
Particles are grouped. Safe to use groups 
e
  ParticleSetPool::put
  Creating ion0 particleset
  XMLParticleParser::putSpecial
  All the species have the same mass 1
Particles are grouped. Safe to use groups 
ion0
 Adding WavefunctionFactory for psi0
  WaveFunctionFactory::build
  WaveFunctionFactory::addFermionTerm
  SlaterDetBuilder::put(xmlNodePtr)
  BasisSetFactory::createBasisSet
Using MolecularBasisBuilder<NGOBuilder>

  MolecularBasisBuilder::put(xmlNodePtr)
<input node="basisset"  name="LCAOBSet"/>
  Distance table for AA: source/target = e
    PBC=open Orthorhombic=NA
 using Cartesian coordinates with 
  ... ParticleSet::addTable Create Table #0 e_e
  Distance table for AB: source = ion0 target = e
    PBC=open Orthorhombic=NA
 using Cartesian coordinates 
  ... ParticleSet::addTable Create Table #1 ion0_e
  AtomicBasisBuilder::put(xmlNodePtr)
<input node="atomicBasisSet"  name="Gaussian-G2"  angular="cartesian"  type="Gaussian"  elementType="O"  normalized="no"/>
  AtomicBasisBuilder::createAOSet(xmlNodePtr)
  AO BasisSet for O
   Angular momentum expanded in cartesian functions x^lx y^ly z^lz according to Gamess
Using log grid with default values: ri = 1e-06 rf = 100 npts = 1001
   R(n,l,m,s) 0 0 0 0
Expanding Ylm (angular function) according to Gamess using cartesian gaussians
    Gaussian exponent = 0.125346
              contraction=0.055741 nomralized contraction = 0.0296669
    Gaussian exponent = 0.268022
              contraction=0.304848 nomralized contraction = 0.286897
    Gaussian exponent = 0.573098
              contraction=0.453752 nomralized contraction = 0.755101
    Gaussian exponent = 1.22543
              contraction=0.295926 nomralized contraction = 0.870791
    Gaussian exponent = 2.62028
              contraction=0.019567 nomralized contraction = 0.101812
    Gaussian exponent = 5.60282
              contraction=-0.128627 nomralized contraction = -1.18345
    Gaussian exponent = 11.9802
              contraction=0.012024 nomralized contraction = 0.19562
    Gaussian exponent = 25.6168
              contraction=0.000407 nomralized contraction = 0.0117085
    Gaussian exponent = 54.7752
              contraction=-7.59999e-05 nomralized contraction = -0.00386604
Adding 1 cartesian gaussian orbitals for l= 0
   R(n,l,m,s) 1 0 0 0
Expanding Ylm (angular function) according to Gamess using cartesian gaussians
    Gaussian exponent = 1.68663
              contraction=1 nomralized contraction = 3.73922
	Setting GridManager of 1 radial orbital to false
Adding 1 cartesian gaussian orbitals for l= 0
   R(n,l,m,s) 2 0 0 0
Expanding Ylm (angular function) according to Gamess using cartesian gaussians
    Gaussian exponent = 0.237997
              contraction=1 nomralized contraction = 0.860882
	Setting GridManager of 2 radial orbital to false
Adding 1 cartesian gaussian orbitals for l= 0
   R(n,l,m,s) 3 1 0 0
Expanding Ylm (angular function) according to Gamess using cartesian gaussians
    Gaussian exponent = 0.083598
              contraction=0.044958 nomralized contraction = 0.00589571
    Gaussian exponent = 0.167017
              contraction=0.150175 nomralized contraction = 0.046777
    Gaussian exponent = 0.333673
              contraction=0.255999 nomralized contraction = 0.189397
    Gaussian exponent = 0.666627
              contraction=0.281879 nomralized contraction = 0.495337
    Gaussian exponent = 1.33182
              contraction=0.242835 nomralized contraction = 1.01356
    Gaussian exponent = 2.66076
              contraction=0.161134 nomralized contraction = 1.59746
    Gaussian exponent = 5.31578
              contraction=0.082308 nomralized contraction = 1.93814
    Gaussian exponent = 10.6201
              contraction=0.039899 nomralized contraction = 2.23155
    Gaussian exponent = 21.2173
              contraction=0.004679 nomralized contraction = 0.621585
	Setting GridManager of 3 radial orbital to false
Adding 3 cartesian gaussian orbitals for l= 1
   R(n,l,m,s) 4 1 0 0
Expanding Ylm (angular function) according to Gamess using cartesian gaussians
    Gaussian exponent = 0.184696
              contraction=1 nomralized contraction = 0.353229
	Setting GridManager of 4 radial orbital to false
Adding 3 cartesian gaussian orbitals for l= 1
   R(n,l,m,s) 5 1 0 0
Expanding Ylm (angular function) according to Gamess using cartesian gaussians
    Gaussian exponent = 0.600621
              contraction=1 nomralized contraction = 1.54254
	Setting GridManager of 5 radial orbital to false
Adding 3 cartesian gaussian orbitals for l= 1
   R(n,l,m,s) 6 2 0 0
Expanding Ylm (angular function) according to Gamess using cartesian gaussians
    Gaussian exponent = 0.66934
              contraction=1 nomralized contraction = 1.29244
	Setting GridManager of 6 radial orbital to false
Adding 6 cartesian gaussian orbitals for l= 2
   R(n,l,m,s) 7 2 0 0
Expanding Ylm (angular function) according to Gamess using cartesian gaussians
    Gaussian exponent = 2.40428
              contraction=1 nomralized contraction = 12.113
	Setting GridManager of 7 radial orbital to false
Adding 6 cartesian gaussian orbitals for l= 2
   R(n,l,m,s) 8 3 0 0
Expanding Ylm (angular function) according to Gamess using cartesian gaussians
    Gaussian exponent = 1.4231
              contraction=1 nomralized contraction = 4.36308
	Setting GridManager of 8 radial orbital to false
Adding 10 cartesian gaussian orbitals for l= 3
   Maximu Angular Momentum   = 3
   Number of Radial functors = 9
   Basis size                = 34

  AtomicBasisBuilder::put(xmlNodePtr)
<input node="atomicBasisSet"  name="Gaussian-G2"  angular="cartesian"  type="Gaussian"  elementType="H"  normalized="no"/>
  AtomicBasisBuilder::createAOSet(xmlNodePtr)
  AO BasisSet for H
   Angular momentum expanded in cartesian functions x^lx y^ly z^lz according to Gamess
Using log grid with default values: ri = 1e-06 rf = 100 npts = 1001
   R(n,l,m,s) 0 0 0 0
Expanding Ylm (angular function) according to Gamess using cartesian gaussians
    Gaussian exponent = 8.70089
              contraction=0.0627182 nomralized contraction = 0.802752
    Gaussian exponent = 1.95552
              contraction=0.261959 nomralized contraction = 1.09445
    Gaussian exponent = 0.559044
              contraction=0.75701 nomralized contraction = 1.23652
Adding 1 cartesian gaussian orbitals for l= 0
   R(n,l,m,s) 1 0 0 0
Expanding Ylm (angular function) according to Gamess using cartesian gaussians
    Gaussian exponent = 0.164925
              contraction=1 nomralized contraction = 0.653854
	Setting GridManager of 1 radial orbital to false
Adding 1 cartesian gaussian orbitals for l= 0
   R(n,l,m,s) 2 0 0 0
Expanding Ylm (angular function) according to Gamess using cartesian gaussians
    Gaussian exponent = 0.0320625
              contraction=1 nomralized contraction = 0.191431
	Setting GridManager of 2 radial orbital to false
Adding 1 cartesian gaussian orbitals for l= 0
   R(n,l,m,s) 3 1 0 0
Expanding Ylm (angular function) according to Gamess using cartesian gaussians
    Gaussian exponent = 0.790074
              contraction=1 nomralized contraction = 2.17305
	Setting GridManager of 3 radial orbital to false
Adding 3 cartesian gaussian orbitals for l= 1
   R(n,l,m,s) 4 1 0 0
Expanding Ylm (angular function) according to Gamess using cartesian gaussians
    Gaussian exponent = 0.152351
              contraction=1 nomralized contraction = 0.277679
	Setting GridManager of 4 radial orbital to false
Adding 3 cartesian gaussian orbitals for l= 1
   R(n,l,m,s) 5 2 0 0
Expanding Ylm (angular function) according to Gamess using cartesian gaussians
    Gaussian exponent = 0.883818
              contraction=1 nomralized contraction = 2.10215
	Setting GridManager of 5 radial orbital to false
Adding 6 cartesian gaussian orbitals for l= 2
   Maximu Angular Momentum   = 2
   Number of Radial functors = 6
   Basis size                = 15

Built BasisSetBuilder "LCAOBSet" of type molecularorbital
Creating SPOSet in SlaterDetBuilder::put(xmlNodePtr cur).
spo_name = spo-up
 Building SPOset spo-up with LCAOBSet basis set.
  MolecularBasisBuilder::createSPO(xmlNodePtr)
Creating LCOrbitalSet with the input coefficients
Creating SPOSet in SlaterDetBuilder::put(xmlNodePtr cur).
spo_name = spo-dn
 Building SPOset spo-dn with LCAOBSet basis set.
  MolecularBasisBuilder::createSPO(xmlNodePtr)
Creating LCOrbitalSet with the input coefficients
Using Bryan's algorithm for MultiSlaterDeterminant expansion. 
Creating base determinant (up) for MSD expansion. 
Creating base determinant (down) for MSD expansion. 
Found determinant list. 
Reading CSFs.
Found 498 terms in the MSD expansion.
Norm of ci vector (sum of ci^2): 0.977398
Norm of qchem ci vector (sum of qchem_ci^2): 0.977398
Found 103 unique up determinants.
Found 103 unique down determinants.
Number of terms in pairs array: 67
Number of terms in pairs array: 67
CI coefficients are optimizable. 
  FermionWF=MultiSlaterDeterminantFast
  JastrowBuilder::addTwoBody(xmlNodePtr)
  BsplineJastrowBuilder::put(xmlNodePtr)
  BsplineJastrowBuilder adds a functor with cusp = -0.25
  BsplineFunctor::put(xmlNodePtr)
 size = 10 parameters 
 cusp = -0.25
 rcut = 10
Parameter     Name      Value
uu_0 0 1 1  ON 0
uu_1 0 1 1  ON 1
uu_2 0 1 1  ON 2
uu_3 0 1 1  ON 3
uu_4 0 1 1  ON 4
uu_5 0 1 1  ON 5
uu_6 0 1 1  ON 6
uu_7 0 1 1  ON 7
uu_8 0 1 1  ON 8
uu_9 0 1 1  ON 9
  BsplineJastrowBuilder adds a functor with cusp = -0.5
  BsplineFunctor::put(xmlNodePtr)
 size = 10 parameters 
 cusp = -0.5
 rcut = 10
Parameter     Name      Value
ud_0 0 1 1  ON 0
ud_1 0 1 1  ON 1
ud_2 0 1 1  ON 2
ud_3 0 1 1  ON 3
ud_4 0 1 1  ON 4
ud_5 0 1 1  ON 5
ud_6 0 1 1  ON 6
ud_7 0 1 1  ON 7
ud_8 0 1 1  ON 8
ud_9 0 1 1  ON 9
  JastrowBuilder::addOneBody(xmlNodePtr)

  Using BsplineBuilder for one-body jastrow with B-spline functions
  BsplineJastrowBuilder::put(xmlNodePtr)
  BsplineJastrowBuilder::createOneBodyJastrow(xmlNodePtr)
  ... ParticleSet::addTable Reuse Table #1 ion0_e
  ... ParticleSet::addTable Reuse Table #1 ion0_e
  BsplineFunctor::put(xmlNodePtr)
 size = 10 parameters 
 cusp = 0
 rcut = 10
Parameter     Name      Value
eO_0 0 1 1  ON 0
eO_1 0 1 1  ON 1
eO_2 0 1 1  ON 2
eO_3 0 1 1  ON 3
eO_4 0 1 1  ON 4
eO_5 0 1 1  ON 5
eO_6 0 1 1  ON 6
eO_7 0 1 1  ON 7
eO_8 0 1 1  ON 8
eO_9 0 1 1  ON 9
  BsplineFunctor::put(xmlNodePtr)
 size = 10 parameters 
 cusp = 0
 rcut = 10
Parameter     Name      Value
eH_0 0 1 1  ON 0
eH_1 0 1 1  ON 1
eH_2 0 1 1  ON 2
eH_3 0 1 1  ON 3
eH_4 0 1 1  ON 4
eH_5 0 1 1  ON 5
eH_6 0 1 1  ON 6
eH_7 0 1 1  ON 7
eH_8 0 1 1  ON 8
eH_9 0 1 1  ON 9
  JastrowBuilder::add_eeI(xmlNodePtr)
  eeI_JastrowBuilder::put(xmlNodePtr)
  ... ParticleSet::addTable Reuse Table #1 ion0_e
  PolynomialFunctor3D::put(xmlNodePtr)
Expected 26 parameters, but found 0 in PolynomialFunctor3D.
Parameter     Name      Value
uuO_0 0 1 1  ON 0
uuO_1 0 1 1  ON 1
uuO_2 0 1 1  ON 2
uuO_3 0 1 1  ON 3
uuO_4 0 1 1  ON 4
uuO_5 0 1 1  ON 5
uuO_6 0 1 1  ON 6
uuO_7 0 1 1  ON 7
uuO_8 0 1 1  ON 8
uuO_9 0 1 1  ON 9
uuO_10 0 1 1  ON 10
uuO_11 0 1 1  ON 11
uuO_12 0 1 1  ON 12
uuO_13 0 1 1  ON 13
uuO_14 0 1 1  ON 14
uuO_15 0 1 1  ON 15
uuO_16 0 1 1  ON 16
uuO_17 0 1 1  ON 17
uuO_18 0 1 1  ON 18
uuO_19 0 1 1  ON 19
uuO_20 0 1 1  ON 20
uuO_21 0 1 1  ON 21
uuO_22 0 1 1  ON 22
uuO_23 0 1 1  ON 23
uuO_24 0 1 1  ON 24
uuO_25 0 1 1  ON 25
  PolynomialFunctor3D::put(xmlNodePtr)
Expected 26 parameters, but found 0 in PolynomialFunctor3D.
Parameter     Name      Value
udO_0 0 1 1  ON 0
udO_1 0 1 1  ON 1
udO_2 0 1 1  ON 2
udO_3 0 1 1  ON 3
udO_4 0 1 1  ON 4
udO_5 0 1 1  ON 5
udO_6 0 1 1  ON 6
udO_7 0 1 1  ON 7
udO_8 0 1 1  ON 8
udO_9 0 1 1  ON 9
udO_10 0 1 1  ON 10
udO_11 0 1 1  ON 11
udO_12 0 1 1  ON 12
udO_13 0 1 1  ON 13
udO_14 0 1 1  ON 14
udO_15 0 1 1  ON 15
udO_16 0 1 1  ON 16
udO_17 0 1 1  ON 17
udO_18 0 1 1  ON 18
udO_19 0 1 1  ON 19
udO_20 0 1 1  ON 20
udO_21 0 1 1  ON 21
udO_22 0 1 1  ON 22
udO_23 0 1 1  ON 23
udO_24 0 1 1  ON 24
udO_25 0 1 1  ON 25
  PolynomialFunctor3D::put(xmlNodePtr)
Expected 26 parameters, but found 0 in PolynomialFunctor3D.
Parameter     Name      Value
uuH_0 0 1 1  ON 0
uuH_1 0 1 1  ON 1
uuH_2 0 1 1  ON 2
uuH_3 0 1 1  ON 3
uuH_4 0 1 1  ON 4
uuH_5 0 1 1  ON 5
uuH_6 0 1 1  ON 6
uuH_7 0 1 1  ON 7
uuH_8 0 1 1  ON 8
uuH_9 0 1 1  ON 9
uuH_10 0 1 1  ON 10
uuH_11 0 1 1  ON 11
uuH_12 0 1 1  ON 12
uuH_13 0 1 1  ON 13
uuH_14 0 1 1  ON 14
uuH_15 0 1 1  ON 15
uuH_16 0 1 1  ON 16
uuH_17 0 1 1  ON 17
uuH_18 0 1 1  ON 18
uuH_19 0 1 1  ON 19
uuH_20 0 1 1  ON 20
uuH_21 0 1 1  ON 21
uuH_22 0 1 1  ON 22
uuH_23 0 1 1  ON 23
uuH_24 0 1 1  ON 24
uuH_25 0 1 1  ON 25
  PolynomialFunctor3D::put(xmlNodePtr)
Expected 26 parameters, but found 0 in PolynomialFunctor3D.
Parameter     Name      Value
udH_0 0 1 1  ON 0
udH_1 0 1 1  ON 1
udH_2 0 1 1  ON 2
udH_3 0 1 1  ON 3
udH_4 0 1 1  ON 4
udH_5 0 1 1  ON 5
udH_6 0 1 1  ON 6
udH_7 0 1 1  ON 7
udH_8 0 1 1  ON 8
udH_9 0 1 1  ON 9
udH_10 0 1 1  ON 10
udH_11 0 1 1  ON 11
udH_12 0 1 1  ON 12
udH_13 0 1 1  ON 13
udH_14 0 1 1  ON 14
udH_15 0 1 1  ON 15
udH_16 0 1 1  ON 16
udH_17 0 1 1  ON 17
udH_18 0 1 1  ON 18
udH_19 0 1 1  ON 19
udH_20 0 1 1  ON 20
udH_21 0 1 1  ON 21
udH_22 0 1 1  ON 22
udH_23 0 1 1  ON 23
udH_24 0 1 1  ON 24
udH_25 0 1 1  ON 25
  HamiltonianPool::put
  QMCHamiltonian::addOperator Kinetic to H, physical Hamiltonian 
  ... ParticleSet::addTable Reuse Table #0 e_e
  QMCHamiltonian::addOperator ElecElec to H, physical Hamiltonian 

  ECPotential builder for pseudopotential 

  Adding pseudopotential for O
   Linear grid  ri=0 rf=10 npts = 10001
    ECPComponentBuilder::buildSemiLocalAndLocal 
    Assuming Hartree unit
   Number of angular momentum channels 2
   Maximum angular momentum channel 1
   Creating a Linear Grid Rmax=1.31
  Using global grid with delta = 0.001
   Making L=1 a local potential with a radial cutoff of 9.998
  NonLocalECPComponent::resize_warrays 
    Non-local pseudopotential parameters
    Maximum angular mementum = 0
    Number of non-local channels = 1
       l(0)=0
    Cutoff radius = 1.31
    Spherical grids and weights: 
                        1                 0                 0       0.08333333333
                       -1   1.224646799e-16                 0       0.08333333333
             0.4472135955       0.894427191                 0       0.08333333333
            -0.4472135955      0.7236067977      0.5257311121       0.08333333333
             0.4472135955      0.2763932023      0.8506508084       0.08333333333
            -0.4472135955     -0.2763932023      0.8506508084       0.08333333333
             0.4472135955     -0.7236067977      0.5257311121       0.08333333333
            -0.4472135955      -0.894427191   1.095357397e-16       0.08333333333
             0.4472135955     -0.7236067977     -0.5257311121       0.08333333333
            -0.4472135955     -0.2763932023     -0.8506508084       0.08333333333
             0.4472135955      0.2763932023     -0.8506508084       0.08333333333
            -0.4472135955      0.7236067977     -0.5257311121       0.08333333333
    Maximum cutoff radius 1.31

  Adding pseudopotential for H
   Linear grid  ri=0 rf=10 npts = 10001
    ECPComponentBuilder::buildSemiLocalAndLocal 
    Assuming Hartree unit
    Only one vps is found. Set the local component=0
   Number of angular momentum channels 1
   Maximum angular momentum channel 0
   Creating a Linear Grid Rmax=1.17
  Using global grid with delta = 0.001
   Making L=0 a local potential with a radial cutoff of 9.998
  ... ParticleSet::addTable Reuse Table #1 ion0_e
  QMCHamiltonian::addOperator LocalECP to H, physical Hamiltonian 
  ForceBase::ForceBase
  ... ParticleSet::addTable Reuse Table #1 ion0_e
  ... ParticleSet::addTable Reuse Table #1 ion0_e

  Using NonLocalECP potential 
    Maximum grid on a sphere for NonLocalECPotential: 12
  QMCHamiltonian::addOperator NonLocalECP to H, physical Hamiltonian 
  Distance table for AA: source/target = ion0
    PBC=open Orthorhombic=NA
 using Cartesian coordinates with 
  ... ParticleSet::addTable Create Table #0 ion0_ion0
  QMCHamiltonian::addOperator IonIon to H, physical Hamiltonian 

  QMCHamiltonian::add2WalkerProperty added
    5 to P::PropertyList 
    0 to P::Collectables 
    starting Index of the observables in P::PropertyList = 9
  Hamiltonian disables VirtualMoves
<init source="ion0" target="e">
  ... ParticleSet::addTable Reuse Table #0 ion0_ion0
</init>
ParticleSetPool::randomize 
=========================================================
 Summary of QMC systems 
=========================================================
ParticleSetPool has: 

  ParticleSet e : 0 4 8 

    8

    u  3.3627264590e-01  5.6982674403e-01 -2.9353058484e-01
    u  4.7480729909e-01 -3.0262757022e-01  4.5488086057e-01
    u -2.9073095610e-02 -2.7863536999e-01  6.6742722490e-01
    u -5.8080981931e-01 -1.5422536945e+00  6.9051527505e-01
    d -5.8578449477e-01  4.2489871498e-01 -1.6112806133e-02
    d  5.6832360613e-01  4.2569313781e-01 -1.4048361461e-01
    d -5.0855062106e-01  4.9476110175e-01 -1.4328200461e-01
    d  3.8123719599e-01  9.6404387382e-01  7.0697717839e-01

  ParticleSet ion0 : 0 1 3 

    3

    O  0.0000000000e+00  0.0000000000e+00  0.0000000000e+00
    H  0.0000000000e+00 -1.4308249289e+00  1.1078707576e+00
    H  0.0000000000e+00  1.4308249289e+00  1.1078707576e+00

  Hamiltonian h0
  Kinetic         Kinetic energy
  ElecElec        CoulombAA source/target e

  LocalECP        LocalECPotential: ion0
  NonLocalECP     NonLocalECPotential: ion0
  IonIon          CoulombAA source/target ion0

Loop execution max-interations = 8

=========================================================
  Start QMCFixedSampleLinearOptimize
  File Root H2O.s000 append = no 
=========================================================
  Skip QMCDriver::putQMCInfo 
  Resetting Properties of the walkers 1 x 14
  Adding 16 walkers to 0 existing sets
  Total number of walkers: 5.1200000000e+02
  Total weight: 5.1200000000e+02

=========================================================
  Start VMCSingleOMP
  File Root H2O.s000 append = no 
=========================================================
  Using the current 16 walkers.
  Total number of walkers: 5.1200000000e+02
  Total weight: 5.1200000000e+02
  Resetting Properties of the walkers 1 x 14

<vmc function="put">
  qmc_counter=0  my_counter=0
  time step      = 5.0000000000e-01
  blocks         = 250
  steps          = 1
  substeps       = 20
  current        = 0
  target samples = 1.2800000000e+05
  walkers/mpi    = 16

  stepsbetweensamples = 1
<parameter name="blocks" condition="int">250</parameter>
<parameter name="check_properties" condition="int">100</parameter>
<parameter name="checkproperties" condition="int">100</parameter>
<parameter name="current" condition="int">0</parameter>
<parameter name="dmcwalkersperthread" condition="real">2.5000000000e+02</parameter>
<parameter name="maxcpusecs" condition="real">3.6000000000e+05</parameter>
<parameter name="record_configs" condition="int">0</parameter>
<parameter name="record_walkers" condition="int">1</parameter>
<parameter name="recordconfigs" condition="int">0</parameter>
<parameter name="recordwalkers" condition="int">1</parameter>
<parameter name="rewind" condition="int">0</parameter>
<parameter name="samples" condition="real">1.2800000000e+05</parameter>
<parameter name="samplesperthread" condition="real">2.5000000000e+02</parameter>
<parameter name="steps" condition="int">1</parameter>
<parameter name="stepsbetweensamples" condition="int">1</parameter>
<parameter name="store_configs" condition="int">0</parameter>
<parameter name="storeconfigs" condition="int">0</parameter>
<parameter name="sub_steps" condition="int">20</parameter>
<parameter name="substeps" condition="int">20</parameter>
<parameter name="tau" condition="au">5.0000000000e-01</parameter>
<parameter name="time_step" condition="au">5.0000000000e-01</parameter>
<parameter name="timestep" condition="au">5.0000000000e-01</parameter>
<parameter name="use_drift" condition="string">yes</parameter>
<parameter name="usedrift" condition="string">yes</parameter>
<parameter name="walkers" condition="int">16</parameter>
<parameter name="warmup_steps" condition="int">25</parameter>
<parameter name="warmupsteps" condition="int">25</parameter>
  DumpConfig==false Nothing (configurations, state) will be saved.
  Walker Samples are dumped every 1 steps.
</vmc>

 TraceManager::put() 1
  traces requested          : 1
  method allows traces      : 0
  traces available          : 0

 Using QMCCostFunctionOMP::QMCCostFunctionOMP

 TraceManager::put() 1
  traces requested          : 0
  method allows traces      : 0
  traces available          : 0

<optimization-report>
<vmc stage="main" blocks="1">
  CloneManager::makeClones makes 16 clones for W/Psi/H.
  Cloning methods for both Psi and H are used
  Initial partition of walkers 0 1 2 3 4 5 6 7 8 9 10 11 12 13 14 15 16 
  PbyP moves with drift, using VMCUpdatePbyPWithDriftFast

  Total Sample Size   =128000
  Walker distribution on root = 0 1 2 3 4 5 6 7 8 9 10 11 12 13 14 15 16 
  Anonymous Buffer size per walker 5643
MEMORY increase 0 MB VMCSingleOMP::resetRun
====================================================
  SimpleFixedNodeBranch::finalize after a VMC block
    QMC counter        = 0
    time step          = 0.5
    reference energy   = -17.1726
    reference variance = 1.12282
====================================================
  Execution time = 2.1276047199e+01
</vmc>
<opt stage="setup">
  <log>
   Reading configurations from h5FileRoot H2O.s000
  QMCCostFunctionOMP is created with 16
   Loading configuration from MCWalkerConfiguration::SampleStack 
    number of walkers before load 16
  Using Nonlocal PP in Opt: NonLocalECP
    number of walkers after load: 250 250 250 250 250 250 250 250 250 250 250 250 250 250 250 250 
Using buffers for temporary storage in QMCCostFunction.

Memory usage: 
Linear method (approx matrix usage: 4*N^2): 2.5088000000e+00 MB
Deriv,HDerivRecord:      2.6880000000e+01 MB
Buffer memory cost:     MB/walker       MB/total 
Orbitals only:           2.1760000000e-03      8.7040000000e+00
Orbitals + dervs:        1.0880000000e-02      4.3520000000e+01
Inverse:                 2.5600000000e-04      1.0240000000e+00
Determinants:            2.8016000000e-02      1.1206400000e+02
  VMC Eavg = -1.7097678950e+01
  VMC Evar = 1.2563093336e+00
  Total weights = 1.2800000000e+05
  Execution time = 4.0773876900e+00
  </log>
</opt>
<opt stage="main" walkers="128000">
  <log>
Iteration: 1/1
od_largest 7.2293050881e+07
  stabilityBase -1.6000000000e+01
  stabilizerScale 2.2730825712e+00
  Using XS:-1.6000000000e+01 0 0
ERROR CostFunction-> Number of Effective Walkers is too small 1.0050154294e+00
ERROR CostFunction-> Number of Effective Walkers is too small 1.2276871499e+00
ERROR CostFunction-> Number of Effective Walkers is too small 1.0033517409e+00
ERROR CostFunction-> Number of Effective Walkers is too small 1.0002720387e+00
ERROR CostFunction-> Number of Effective Walkers is too small 1.0000273927e+00
ERROR CostFunction-> Number of Effective Walkers is too small 1.0000029832e+00
  Failed Step. Largest LM parameter change:5.4051518885e+01
ERROR   Using XS:-1.3726917429e+01 1 0
ERROR CostFunction-> Number of Effective Walkers is too small 1.0050154263e+00
ERROR CostFunction-> Number of Effective Walkers is too small 1.2276868092e+00
ERROR CostFunction-> Number of Effective Walkers is too small 1.0033517372e+00
ERROR CostFunction-> Number of Effective Walkers is too small 1.0002720384e+00
ERROR CostFunction-> Number of Effective Walkers is too small 1.0000273927e+00
ERROR CostFunction-> Number of Effective Walkers is too small 1.0000029832e+00
  Failed Step. Largest LM parameter change:5.4051529405e+01
ERROR   Using XS:-1.1453834858e+01 2 0
ERROR CostFunction-> Number of Effective Walkers is too small 1.0050153967e+00
ERROR CostFunction-> Number of Effective Walkers is too small 1.2276835009e+00
ERROR CostFunction-> Number of Effective Walkers is too small 1.0033517020e+00
ERROR CostFunction-> Number of Effective Walkers is too small 1.0002720347e+00
ERROR CostFunction-> Number of Effective Walkers is too small 1.0000273922e+00
ERROR CostFunction-> Number of Effective Walkers is too small 1.0000029831e+00
  Failed Step. Largest LM parameter change:5.4051631549e+01
ERROR   Using XS:-9.1807522865e+00 3 0
ERROR CostFunction-> Number of Effective Walkers is too small 1.0050151089e+00
ERROR CostFunction-> Number of Effective Walkers is too small 1.2276513806e+00
ERROR CostFunction-> Number of Effective Walkers is too small 1.0033513595e+00
ERROR CostFunction-> Number of Effective Walkers is too small 1.0002719989e+00
ERROR CostFunction-> Number of Effective Walkers is too small 1.0000273876e+00
ERROR CostFunction-> Number of Effective Walkers is too small 1.0000029825e+00
  Failed Step. Largest LM parameter change:5.4052623360e+01
ERROR   Using XS:-6.9076697153e+00 4 0
ERROR CostFunction-> Number of Effective Walkers is too small 1.0050123141e+00
ERROR CostFunction-> Number of Effective Walkers is too small 1.2273395883e+00
ERROR CostFunction-> Number of Effective Walkers is too small 1.0033480346e+00
ERROR CostFunction-> Number of Effective Walkers is too small 1.0002716513e+00
ERROR CostFunction-> Number of Effective Walkers is too small 1.0000273432e+00
ERROR CostFunction-> Number of Effective Walkers is too small 1.0000029766e+00
  Failed Step. Largest LM parameter change:5.4062259732e+01
ERROR   Using XS:-4.6345871442e+00 5 0
ERROR CostFunction-> Number of Effective Walkers is too small 1.0049851171e+00
ERROR CostFunction-> Number of Effective Walkers is too small 1.2243192014e+00
ERROR CostFunction-> Number of Effective Walkers is too small 1.0033157288e+00
ERROR CostFunction-> Number of Effective Walkers is too small 1.0002682778e+00
ERROR CostFunction-> Number of Effective Walkers is too small 1.0000269125e+00
ERROR CostFunction-> Number of Effective Walkers is too small 1.0000029193e+00
  Failed Step. Largest LM parameter change:5.4156448255e+01
ERROR   Using XS:-2.3615045730e+00 6 0
ERROR CostFunction-> Number of Effective Walkers is too small 1.0047151571e+00
ERROR CostFunction-> Number of Effective Walkers is too small 1.1956808407e+00
ERROR CostFunction-> Number of Effective Walkers is too small 1.0030001038e+00
ERROR CostFunction-> Number of Effective Walkers is too small 1.0002357054e+00
ERROR CostFunction-> Number of Effective Walkers is too small 1.0000228278e+00
ERROR CostFunction-> Number of Effective Walkers is too small 1.0000023862e+00
  Failed Step. Largest LM parameter change:5.5134099657e+01
ERROR   Using XS:-8.8422001856e-02 7 0
ERROR CostFunction-> Number of Effective Walkers is too small 1.5889290986e+00
ERROR CostFunction-> Number of Effective Walkers is too small 1.1112769918e+00
ERROR CostFunction-> Number of Effective Walkers is too small 1.0009476801e+00
ERROR CostFunction-> Number of Effective Walkers is too small 1.0001139474e+00
ERROR CostFunction-> Number of Effective Walkers is too small 1.0027634124e+00
ERROR CostFunction-> Number of Effective Walkers is too small 1.0009476801e+00
  Failed Step. Largest LM parameter change:8.7179661295e+01
ERROR   Using XS:2.1846605693e+00 8 0
ERROR CostFunction-> Number of Effective Walkers is too small 1.0215929890e+00
ERROR CostFunction-> Number of Effective Walkers is too small 1.4979605547e+00
ERROR CostFunction-> Number of Effective Walkers is too small 1.5232502767e+00
ERROR CostFunction-> Number of Effective Walkers is too small 1.7505504074e+00
ERROR CostFunction-> Number of Effective Walkers is too small 2.2772583349e+00
ERROR CostFunction-> Number of Effective Walkers is too small 2.4726222390e+00
  Failed Step. Largest LM parameter change:6.1237397036e+01
ERROR   Using XS:4.4577431405e+00 9 0
  Good Step. Largest LM parameter change:3.5027361234e-01
 OldCost: -1.6179979536e+01 NewCost: -1.6338411262e+01 Delta Cost:-1.5843172568e-01
      Current ene:     -1.7221637640e+01
      Current var:     4.4288992074e-01
      Current ene_urw:     -1.7190678465e+01
      Current var_urw: 1.1295114037e+00
Setting new Parameters
ERROR   Execution time = 1.6324390956e+02
  </log>
  <optVariables href="H2O.s000.opt.xml">
CSFcoeff_1 -2.3882710035e-02 3 1  ON 0
CSFcoeff_2 2.9425556364e-02 3 1  ON 1
CSFcoeff_3 -2.4055845396e-02 3 1  ON 2
CSFcoeff_4 -2.3628299397e-02 3 1  ON 3
CSFcoeff_5 1.9341704842e-02 3 1  ON 4
CSFcoeff_6 -2.1370458298e-02 3 1  ON 5
CSFcoeff_7 -1.9119532663e-02 3 1  ON 6
CSFcoeff_8 -1.9690222218e-02 3 1  ON 7
CSFcoeff_9 -1.7532406644e-02 3 1  ON 8
CSFcoeff_10 -1.8433333836e-02 3 1  ON 9
CSFcoeff_11 -1.7932859086e-02 3 1  ON 10
CSFcoeff_12 -1.7595446814e-02 3 1  ON 11
CSFcoeff_13 1.6654407393e-02 3 1  ON 12
CSFcoeff_14 -1.8106955634e-02 3 1  ON 13
CSFcoeff_15 1.3854796519e-02 3 1  ON 14
CSFcoeff_16 -1.7680924029e-02 3 1  ON 15
CSFcoeff_17 -1.7338817312e-02 3 1  ON 16
CSFcoeff_18 -1.4898690891e-02 3 1  ON 17
CSFcoeff_19 -1.4571110275e-02 3 1  ON 18
CSFcoeff_20 1.4696765865e-02 3 1  ON 19
CSFcoeff_21 -1.5920642452e-02 3 1  ON 20
CSFcoeff_22 -1.5430733018e-02 3 1  ON 21
CSFcoeff_23 -1.6373205987e-02 3 1  ON 22
CSFcoeff_24 -1.5126536222e-02 3 1  ON 23
CSFcoeff_25 -1.6437090962e-02 3 1  ON 24
CSFcoeff_26 -1.5855385210e-02 3 1  ON 25
CSFcoeff_27 -1.6484281416e-02 3 1  ON 26
CSFcoeff_28 -1.4966092554e-02 3 1  ON 27
CSFcoeff_29 -1.1605486875e-02 3 1  ON 28
CSFcoeff_30 -1.4923047304e-02 3 1  ON 29
CSFcoeff_31 1.3992190392e-02 3 1  ON 30
CSFcoeff_32 -1.2416843752e-02 3 1  ON 31
CSFcoeff_33 -1.3480027814e-02 3 1  ON 32
CSFcoeff_34 9.7507932338e-03 3 1  ON 33
CSFcoeff_35 -1.3465526103e-02 3 1  ON 34
CSFcoeff_36 -1.4319677175e-02 3 1  ON 35
CSFcoeff_37 -1.2853217102e-02 3 1  ON 36
CSFcoeff_38 -1.0008460400e-02 3 1  ON 37
CSFcoeff_39 1.2717124650e-02 3 1  ON 38
CSFcoeff_40 1.4763740440e-02 3 1  ON 39
CSFcoeff_41 -1.0498534282e-02 3 1  ON 40
CSFcoeff_42 -9.9803094533e-03 3 1  ON 41
CSFcoeff_43 1.1685579530e-02 3 1  ON 42
CSFcoeff_44 1.0587287720e-02 3 1  ON 43
CSFcoeff_45 1.2833843303e-02 3 1  ON 44
CSFcoeff_46 -8.9867741368e-03 3 1  ON 45
CSFcoeff_47 1.1457243216e-02 3 1  ON 46
CSFcoeff_48 -1.0357735885e-02 3 1  ON 47
CSFcoeff_49 -1.2664844382e-02 3 1  ON 48
CSFcoeff_50 -1.2440429878e-02 3 1  ON 49
CSFcoeff_51 1.1548080337e-02 3 1  ON 50
CSFcoeff_52 1.0864276572e-02 3 1  ON 51
CSFcoeff_53 1.1560558031e-02 3 1  ON 52
CSFcoeff_54 -9.4206783647e-03 3 1  ON 53
CSFcoeff_55 -1.2236930067e-02 3 1  ON 54
CSFcoeff_56 -1.0876997078e-02 3 1  ON 55
CSFcoeff_57 -1.2427111530e-02 3 1  ON 56
CSFcoeff_58 -1.1236277663e-02 3 1  ON 57
CSFcoeff_59 9.7960919956e-03 3 1  ON 58
CSFcoeff_60 1.3381984774e-02 3 1  ON 59
CSFcoeff_61 -1.2013857407e-02 3 1  ON 60
CSFcoeff_62 -8.3857667026e-03 3 1  ON 61
CSFcoeff_63 1.0595628107e-02 3 1  ON 62
CSFcoeff_64 -1.1489408661e-02 3 1  ON 63
CSFcoeff_65 -1.1017946183e-02 3 1  ON 64
CSFcoeff_66 1.0223150943e-02 3 1  ON 65
CSFcoeff_67 1.0874930112e-02 3 1  ON 66
CSFcoeff_68 -1.1332910085e-02 3 1  ON 67
CSFcoeff_69 1.0519746268e-02 3 1  ON 68
CSFcoeff_70 -8.8109162180e-03 3 1  ON 69
CSFcoeff_71 -1.0903318361e-02 3 1  ON 70
CSFcoeff_72 8.5593328078e-03 3 1  ON 71
CSFcoeff_73 -1.0660912283e-02 3 1  ON 72
CSFcoeff_74 -1.1152853427e-02 3 1  ON 73
CSFcoeff_75 -8.3216965211e-03 3 1  ON 74
CSFcoeff_76 -1.0063641142e-02 3 1  ON 75
CSFcoeff_77 -1.0740528883e-02 3 1  ON 76
CSFcoeff_78 -1.1112183684e-02 3 1  ON 77
CSFcoeff_79 -1.0603739487e-02 3 1  ON 78
CSFcoeff_80 9.6389650434e-03 3 1  ON 79
CSFcoeff_81 8.7670560644e-03 3 1  ON 80
CSFcoeff_82 8.7787230136e-03 3 1  ON 81
CSFcoeff_83 -9.4097067702e-03 3 1  ON 82
CSFcoeff_84 -1.0312683298e-02 3 1  ON 83
CSFcoeff_85 -8.9425954898e-03 3 1  ON 84
CSFcoeff_86 -9.3687753405e-03 3 1  ON 85
CSFcoeff_87 9.4009749566e-03 3 1  ON 86
CSFcoeff_88 -1.0219624385e-02 3 1  ON 87
CSFcoeff_89 9.4429577179e-03 3 1  ON 88
CSFcoeff_90 -9.0715786988e-03 3 1  ON 89
CSFcoeff_91 -1.0459514529e-02 3 1  ON 90
CSFcoeff_92 9.9760290847e-03 3 1  ON 91
CSFcoeff_93 7.2344532468e-03 3 1  ON 92
CSFcoeff_94 -1.0107956767e-02 3 1  ON 93
CSFcoeff_95 9.2269718449e-03 3 1  ON 94
CSFcoeff_96 -9.4729320063e-03 3 1  ON 95
CSFcoeff_97 -9.4398542672e-03 3 1  ON 96
CSFcoeff_98 9.2179543571e-03 3 1  ON 97
CSFcoeff_99 -1.0200174225e-02 3 1  ON 98
CSFcoeff_100 1.2541861614e-02 3 1  ON 99
CSFcoeff_101 9.3501102581e-03 3 1  ON 100
CSFcoeff_102 -1.0686918028e-02 3 1  ON 101
CSFcoeff_103 7.8012955399e-03 3 1  ON 102
CSFcoeff_104 9.2785233323e-03 3 1  ON 103
CSFcoeff_105 9.2115566956e-03 3 1  ON 104
CSFcoeff_106 9.5068151587e-03 3 1  ON 105
CSFcoeff_107 -8.5634439491e-03 3 1  ON 106
CSFcoeff_108 9.1247564905e-03 3 1  ON 107
CSFcoeff_109 -7.4819765081e-03 3 1  ON 108
CSFcoeff_110 7.7972085894e-03 3 1  ON 109
CSFcoeff_111 -7.0203033138e-03 3 1  ON 110
CSFcoeff_112 8.5039838666e-03 3 1  ON 111
CSFcoeff_113 8.2446848644e-03 3 1  ON 112
CSFcoeff_114 8.2933190402e-03 3 1  ON 113
CSFcoeff_115 9.7206988458e-03 3 1  ON 114
CSFcoeff_116 7.9116674815e-03 3 1  ON 115
CSFcoeff_117 -9.7194787919e-03 3 1  ON 116
CSFcoeff_118 -6.8294882469e-03 3 1  ON 117
CSFcoeff_119 6.9239173532e-03 3 1  ON 118
CSFcoeff_120 -7.8633482229e-03 3 1  ON 119
CSFcoeff_121 -9.8397264200e-03 3 1  ON 120
CSFcoeff_122 -9.1757587717e-03 3 1  ON 121
CSFcoeff_123 8.5627966606e-03 3 1  ON 122
CSFcoeff_124 8.1246154821e-03 3 1  ON 123
CSFcoeff_125 -6.8742887323e-03 3 1  ON 124
CSFcoeff_126 -8.1023792106e-03 3 1  ON 125
CSFcoeff_127 7.3943306110e-03 3 1  ON 126
CSFcoeff_128 -9.7256730515e-03 3 1  ON 127
CSFcoeff_129 -6.9199040667e-03 3 1  ON 128
CSFcoeff_130 -8.6435250362e-03 3 1  ON 129
CSFcoeff_131 -7.8292009531e-03 3 1  ON 130
CSFcoeff_132 -8.5753664524e-03 3 1  ON 131
CSFcoeff_133 8.2861234644e-03 3 1  ON 132
CSFcoeff_134 -9.3334898065e-03 3 1  ON 133
CSFcoeff_135 -5.7553284538e-03 3 1  ON 134
CSFcoeff_136 7.4803229892e-03 3 1  ON 135
uu_0 2.5125811847e-01 1 1  ON 136
uu_1 4.0050673053e-02 1 1  ON 137
uu_2 5.3692298857e-03 1 1  ON 138
uu_3 -5.2195844763e-03 1 1  ON 139
uu_4 -7.3697875290e-03 1 1  ON 140
uu_5 -9.4588145874e-03 1 1  ON 141
uu_6 -1.5175920745e-02 1 1  ON 142
uu_7 -1.5892242182e-02 1 1  ON 143
uu_8 -8.2660511985e-03 1 1  ON 144
uu_9 -2.1088727685e-02 1 1  ON 145
ud_0 3.5027361234e-01 1 1  ON 146
ud_1 4.8094949563e-02 1 1  ON 147
ud_2 2.6492480436e-02 1 1  ON 148
ud_3 3.5983235183e-03 1 1  ON 149
ud_4 -1.4326528127e-03 1 1  ON 150
ud_5 -1.1034627282e-02 1 1  ON 151
ud_6 -1.1703686166e-02 1 1  ON 152
ud_7 -7.5478757033e-03 1 1  ON 153
ud_8 -1.3693795423e-03 1 1  ON 154
ud_9 -6.6899739179e-03 1 1  ON 155
eO_0 -3.3854057680e-01 1 1  ON 156
eO_1 -1.7714376714e-01 1 1  ON 157
eO_2 -1.0012911496e-02 1 1  ON 158
eO_3 1.0835056355e-01 1 1  ON 159
eO_4 1.5862401010e-01 1 1  ON 160
eO_5 5.9421639908e-02 1 1  ON 161
eO_6 6.8157668024e-02 1 1  ON 162
eO_7 4.7524354011e-02 1 1  ON 163
eO_8 3.2175546911e-02 1 1  ON 164
eO_9 9.0784801401e-02 1 1  ON 165
eH_0 -9.6238489672e-02 1 1  ON 166
eH_1 -3.5566571707e-02 1 1  ON 167
eH_2 -2.4846674685e-02 1 1  ON 168
eH_3 -7.9551588537e-03 1 1  ON 169
eH_4 6.4026337261e-04 1 1  ON 170
eH_5 -1.8417902705e-03 1 1  ON 171
eH_6 -1.0044962074e-02 1 1  ON 172
eH_7 5.0643535347e-04 1 1  ON 173
eH_8 2.7107688619e-03 1 1  ON 174
eH_9 1.9310809527e-02 1 1  ON 175
uuO_0 4.9684669294e-06 1 1  ON 176
uuO_1 -9.1006797333e-06 1 1  ON 177
uuO_2 -6.0763421207e-06 1 1  ON 178
uuO_3 -5.2753235159e-06 1 1  ON 179
uuO_4 -1.5741382193e-06 1 1  ON 180
uuO_5 3.6134597777e-07 1 1  ON 181
uuO_6 -3.5205899123e-05 1 1  ON 182
uuO_7 3.1298715491e-05 1 1  ON 183
uuO_8 1.0684165682e-05 1 1  ON 184
uuO_9 1.7858420598e-05 1 1  ON 185
uuO_10 -2.6985878303e-06 1 1  ON 186
uuO_11 -1.5263593452e-05 1 1  ON 187
uuO_12 -2.9754574997e-06 1 1  ON 188
uuO_13 4.4678268400e-06 1 1  ON 189
uuO_14 5.8689723952e-06 1 1  ON 190
uuO_15 -3.0332581503e-07 1 1  ON 191
uuO_16 -2.4861540821e-05 1 1  ON 192
uuO_17 1.2592561368e-05 1 1  ON 193
uuO_18 9.5663010810e-06 1 1  ON 194
uuO_19 -1.6004596791e-07 1 1  ON 195
uuO_20 2.1884437024e-06 1 1  ON 196
uuO_21 -3.0809814439e-06 1 1  ON 197
uuO_22 4.3844341327e-07 1 1  ON 198
uuO_23 -3.1904540351e-07 1 1  ON 199
uuO_24 6.1665888148e-07 1 1  ON 200
uuO_25 -1.3030041068e-07 1 1  ON 201
udO_0 4.2407659161e-06 1 1  ON 202
udO_1 1.3103381377e-05 1 1  ON 203
udO_2 1.1257794669e-05 1 1  ON 204
udO_3 -1.7035464048e-05 1 1  ON 205
udO_4 -6.6482157326e-06 1 1  ON 206
udO_5 -1.0191125185e-06 1 1  ON 207
udO_6 7.0976175876e-06 1 1  ON 208
udO_7 1.9270155775e-05 1 1  ON 209
udO_8 3.2841964978e-05 1 1  ON 210
udO_9 -1.1603120591e-05 1 1  ON 211
udO_10 -1.1116643671e-05 1 1  ON 212
udO_11 -2.2670119722e-05 1 1  ON 213
udO_12 -8.9336993138e-06 1 1  ON 214
udO_13 2.3136054758e-05 1 1  ON 215
udO_14 1.0226541754e-05 1 1  ON 216
udO_15 -1.8221266292e-07 1 1  ON 217
udO_16 -1.0365373464e-06 1 1  ON 218
udO_17 2.7164849290e-05 1 1  ON 219
udO_18 9.0063682937e-06 1 1  ON 220
udO_19 1.8602603478e-06 1 1  ON 221
udO_20 -7.0786559357e-06 1 1  ON 222
udO_21 -3.1437197300e-06 1 1  ON 223
udO_22 2.9179434606e-07 1 1  ON 224
udO_23 1.2249979977e-06 1 1  ON 225
udO_24 4.6994639219e-07 1 1  ON 226
udO_25 -1.0072118405e-07 1 1  ON 227
uuH_0 -8.9606493265e-07 1 1  ON 228
uuH_1 3.4668502136e-07 1 1  ON 229
uuH_2 1.5982962301e-05 1 1  ON 230
uuH_3 1.2999068614e-05 1 1  ON 231
uuH_4 1.7122130089e-06 1 1  ON 232
uuH_5 -2.9891560183e-07 1 1  ON 233
uuH_6 1.5402030028e-05 1 1  ON 234
uuH_7 9.1212791211e-06 1 1  ON 235
uuH_8 8.0122838546e-06 1 1  ON 236
uuH_9 -1.7412245665e-05 1 1  ON 237
uuH_10 1.4910915937e-05 1 1  ON 238
uuH_11 -3.0429364702e-05 1 1  ON 239
uuH_12 1.7428086711e-06 1 1  ON 240
uuH_13 -1.1804129932e-05 1 1  ON 241
uuH_14 -1.0229358626e-06 1 1  ON 242
uuH_15 -4.9718187769e-08 1 1  ON 243
uuH_16 4.1410044239e-05 1 1  ON 244
uuH_17 -3.8338840186e-05 1 1  ON 245
uuH_18 3.3250085333e-05 1 1  ON 246
uuH_19 -4.0179454262e-06 1 1  ON 247
uuH_20 -5.1434105480e-06 1 1  ON 248
uuH_21 -3.6422223298e-06 1 1  ON 249
uuH_22 6.2523466694e-07 1 1  ON 250
uuH_23 1.8909571220e-06 1 1  ON 251
uuH_24 5.5715999679e-07 1 1  ON 252
uuH_25 -1.1569991236e-07 1 1  ON 253
udH_0 -1.8986960242e-06 1 1  ON 254
udH_1 -1.3619753782e-05 1 1  ON 255
udH_2 1.8445989784e-06 1 1  ON 256
udH_3 3.6764338517e-06 1 1  ON 257
udH_4 -1.9592842874e-07 1 1  ON 258
udH_5 7.5488751209e-07 1 1  ON 259
udH_6 -2.6370743770e-05 1 1  ON 260
udH_7 2.1613467931e-05 1 1  ON 261
udH_8 7.5702552820e-06 1 1  ON 262
udH_9 1.9006494207e-05 1 1  ON 263
udH_10 5.0672601760e-06 1 1  ON 264
udH_11 -1.7710120869e-05 1 1  ON 265
udH_12 -1.4476937188e-06 1 1  ON 266
udH_13 -6.9889594403e-06 1 1  ON 267
udH_14 2.8926937869e-06 1 1  ON 268
udH_15 -1.1905411892e-07 1 1  ON 269
udH_16 -1.8535386087e-05 1 1  ON 270
udH_17 -7.5449485408e-06 1 1  ON 271
udH_18 1.6952265956e-05 1 1  ON 272
udH_19 -9.7464629542e-07 1 1  ON 273
udH_20 5.3152011651e-06 1 1  ON 274
udH_21 -3.4627779360e-06 1 1  ON 275
udH_22 4.2298697863e-07 1 1  ON 276
udH_23 -1.2020923426e-06 1 1  ON 277
udH_24 7.8703682056e-07 1 1  ON 278
udH_25 -1.2496781856e-07 1 1  ON 279
  </optVariables>
   Restore the number of walkers to 16, removing 234 walkers.
</opt>
</optimization-report>
  QMC Execution time = 1.6353088481e+02 secs 
  Reusing QMCFixedSampleLinearOptimize
 Using QMCCostFunctionOMP::QMCCostFunctionOMP

=========================================================
  Start QMCFixedSampleLinearOptimize
  File Root H2O.s001 append = no 
=========================================================
  Skip QMCDriver::putQMCInfo 
  Resetting Properties of the walkers 1 x 14

=========================================================
  Start VMCSingleOMP
  File Root H2O.s001 append = no 
=========================================================
Using existing walkers 
  Resetting Properties of the walkers 1 x 14

<vmc function="put">
  qmc_counter=1  my_counter=1
  time step      = 5.0000000000e-01
  blocks         = 250
  steps          = 1
  substeps       = 20
  current        = 0
  target samples = 1.2800000000e+05
  walkers/mpi    = 16

  stepsbetweensamples = 1
<parameter name="blocks" condition="int">250</parameter>
<parameter name="check_properties" condition="int">100</parameter>
<parameter name="checkproperties" condition="int">100</parameter>
<parameter name="current" condition="int">0</parameter>
<parameter name="dmcwalkersperthread" condition="real">2.5000000000e+02</parameter>
<parameter name="maxcpusecs" condition="real">3.6000000000e+05</parameter>
<parameter name="record_configs" condition="int">0</parameter>
<parameter name="record_walkers" condition="int">1</parameter>
<parameter name="recordconfigs" condition="int">0</parameter>
<parameter name="recordwalkers" condition="int">1</parameter>
<parameter name="rewind" condition="int">0</parameter>
<parameter name="samples" condition="real">1.2800000000e+05</parameter>
<parameter name="samplesperthread" condition="real">2.5000000000e+02</parameter>
<parameter name="steps" condition="int">1</parameter>
<parameter name="stepsbetweensamples" condition="int">1</parameter>
<parameter name="store_configs" condition="int">0</parameter>
<parameter name="storeconfigs" condition="int">0</parameter>
<parameter name="sub_steps" condition="int">20</parameter>
<parameter name="substeps" condition="int">20</parameter>
<parameter name="tau" condition="au">5.0000000000e-01</parameter>
<parameter name="time_step" condition="au">5.0000000000e-01</parameter>
<parameter name="timestep" condition="au">5.0000000000e-01</parameter>
<parameter name="use_drift" condition="string">yes</parameter>
<parameter name="usedrift" condition="string">yes</parameter>
<parameter name="walkers" condition="int">16</parameter>
<parameter name="warmup_steps" condition="int">25</parameter>
<parameter name="warmupsteps" condition="int">25</parameter>
  DumpConfig==false Nothing (configurations, state) will be saved.
  Walker Samples are dumped every 1 steps.
</vmc>

 TraceManager::put() 1
  traces requested          : 1
  method allows traces      : 0
  traces available          : 0

  EstimatorManager::add replace LocalEnergy estimator.

 TraceManager::put() 1
  traces requested          : 0
  method allows traces      : 0
  traces available          : 0

  EstimatorManager::add replace LocalEnergy estimator.
<optimization-report>
<vmc stage="main" blocks="250">
  Cannot make clones again. Use existing 16 clones
  Initial partition of walkers 0 1 2 3 4 5 6 7 8 9 10 11 12 13 14 15 16 
  Total Sample Size   =128000
  Walker distribution on root = 0 1 2 3 4 5 6 7 8 9 10 11 12 13 14 15 16 
====================================================
  SimpleFixedNodeBranch::finalize after a VMC block
    QMC counter        = 1
    time step          = 0.5
    reference energy   = -17.1956
    reference variance = 0.677695
====================================================
  Execution time = 2.0670411430e+01
</vmc>
<opt stage="setup">
  <log>
   Reading configurations from h5FileRoot H2O.s001
  QMCCostFunctionOMP is created with 16
   Loading configuration from MCWalkerConfiguration::SampleStack 
    number of walkers before load 16
  Using Nonlocal PP in Opt: NonLocalECP
    number of walkers after load: 250 250 250 250 250 250 250 250 250 250 250 250 250 250 250 250 
Using buffers for temporary storage in QMCCostFunction.

Memory usage: 
Linear method (approx matrix usage: 4*N^2): 2.5088000000e+00 MB
Deriv,HDerivRecord:      2.6880000000e+01 MB
Buffer memory cost:     MB/walker       MB/total 
Orbitals only:           2.1760000000e-03      8.7040000000e+00
Orbitals + dervs:        1.0880000000e-02      4.3520000000e+01
Inverse:                 2.5600000000e-04      1.0240000000e+00
Determinants:            2.8016000000e-02      1.1206400000e+02
  VMC Eavg = -1.7400465485e+01
  VMC Evar = 6.7191365133e-01
  Total weights = 1.2800000000e+05
  Execution time = 4.0765004937e+00
  </log>
</opt>
<opt stage="main" walkers="128000">
  <log>
Iteration: 1/1
od_largest 6.1271418710e+07
  stabilityBase -6.0000000000e+00
  stabilizerScale 4.7861648079e+00
  Using XS:-6.0000000000e+00 0 0
ERROR CostFunction-> Number of Effective Walkers is too small 1.3218808272e+00
ERROR CostFunction-> Number of Effective Walkers is too small 1.5724664140e+00
ERROR CostFunction-> Number of Effective Walkers is too small 1.7770758556e+00
ERROR CostFunction-> Number of Effective Walkers is too small 1.8844924553e+00
ERROR CostFunction-> Number of Effective Walkers is too small 1.2756142988e+00
ERROR CostFunction-> Number of Effective Walkers is too small 1.0646555654e+00
  Failed Step. Largest LM parameter change:1.1314326682e+02
ERROR   Using XS:-1.2138351921e+00 1 0
ERROR CostFunction-> Number of Effective Walkers is too small 1.1812467176e+00
ERROR CostFunction-> Number of Effective Walkers is too small 1.5576810051e+00
ERROR CostFunction-> Number of Effective Walkers is too small 1.8104868369e+00
ERROR CostFunction-> Number of Effective Walkers is too small 1.8284899705e+00
ERROR CostFunction-> Number of Effective Walkers is too small 1.2346743013e+00
ERROR CostFunction-> Number of Effective Walkers is too small 1.0524250213e+00
  Failed Step. Largest LM parameter change:1.1643691590e+02
ERROR   Using XS:3.5723296158e+00 2 0
  Good Step. Largest LM parameter change:1.0672941163e+00
 OldCost: -1.6333946380e+01 NewCost: -1.6368072290e+01 Delta Cost:-3.4125909147e-02
      Current ene:     -1.7243281127e+01
      Current var:     2.6089562920e-01
      Current ene_urw:     -1.7236871251e+01
      Current var_urw: 2.7056454096e-01
Setting new Parameters
ERROR   Execution time = 9.7649639449e+01
  </log>
  <optVariables href="H2O.s001.opt.xml">
CSFcoeff_1 -2.1004486026e-02 3 1  ON 0
CSFcoeff_2 3.1496003342e-02 3 1  ON 1
CSFcoeff_3 -2.0501412404e-02 3 1  ON 2
CSFcoeff_4 -2.1410132477e-02 3 1  ON 3
CSFcoeff_5 1.5025539231e-02 3 1  ON 4
CSFcoeff_6 -1.9359079954e-02 3 1  ON 5
CSFcoeff_7 -1.5086994121e-02 3 1  ON 6
CSFcoeff_8 -1.7204625543e-02 3 1  ON 7
CSFcoeff_9 -1.5899076459e-02 3 1  ON 8
CSFcoeff_10 -1.5131093830e-02 3 1  ON 9
CSFcoeff_11 -1.5905016806e-02 3 1  ON 10
CSFcoeff_12 -1.4783680033e-02 3 1  ON 11
CSFcoeff_13 1.3293486244e-02 3 1  ON 12
CSFcoeff_14 -1.6032236775e-02 3 1  ON 13
CSFcoeff_15 9.8753382678e-03 3 1  ON 14
CSFcoeff_16 -1.6559158289e-02 3 1  ON 15
CSFcoeff_17 -1.4638423905e-02 3 1  ON 16
CSFcoeff_18 -1.2784498151e-02 3 1  ON 17
CSFcoeff_19 -1.0891100176e-02 3 1  ON 18
CSFcoeff_20 1.1730835161e-02 3 1  ON 19
CSFcoeff_21 -1.4038129012e-02 3 1  ON 20
CSFcoeff_22 -1.3583708230e-02 3 1  ON 21
CSFcoeff_23 -1.5182949712e-02 3 1  ON 22
CSFcoeff_24 -1.3331738255e-02 3 1  ON 23
CSFcoeff_25 -1.3632832150e-02 3 1  ON 24
CSFcoeff_26 -1.4695096214e-02 3 1  ON 25
CSFcoeff_27 -1.4337778124e-02 3 1  ON 26
CSFcoeff_28 -1.3672431818e-02 3 1  ON 27
CSFcoeff_29 -8.5962264753e-03 3 1  ON 28
CSFcoeff_30 -1.3197178556e-02 3 1  ON 29
CSFcoeff_31 1.2815492631e-02 3 1  ON 30
CSFcoeff_32 -9.0634440721e-03 3 1  ON 31
CSFcoeff_33 -1.1213502528e-02 3 1  ON 32
CSFcoeff_34 5.6205930705e-03 3 1  ON 33
CSFcoeff_35 -1.1086198352e-02 3 1  ON 34
CSFcoeff_36 -1.3056949464e-02 3 1  ON 35
CSFcoeff_37 -1.0564805852e-02 3 1  ON 36
CSFcoeff_38 -4.4673146946e-03 3 1  ON 37
CSFcoeff_39 1.0777722233e-02 3 1  ON 38
CSFcoeff_40 1.7064094847e-02 3 1  ON 39
CSFcoeff_41 -7.5131500617e-03 3 1  ON 40
CSFcoeff_42 -4.9813916235e-03 3 1  ON 41
CSFcoeff_43 1.0923055318e-02 3 1  ON 42
CSFcoeff_44 8.1889900849e-03 3 1  ON 43
CSFcoeff_45 1.0901700296e-02 3 1  ON 44
CSFcoeff_46 -4.5153288292e-03 3 1  ON 45
CSFcoeff_47 8.5854514051e-03 3 1  ON 46
CSFcoeff_48 -6.8887615975e-03 3 1  ON 47
CSFcoeff_49 -1.0729997138e-02 3 1  ON 48
CSFcoeff_50 -1.1298586125e-02 3 1  ON 49
CSFcoeff_51 9.8211870820e-03 3 1  ON 50
CSFcoeff_52 7.7532743693e-03 3 1  ON 51
CSFcoeff_53 8.8577557377e-03 3 1  ON 52
CSFcoeff_54 -7.2971903176e-03 3 1  ON 53
CSFcoeff_55 -1.1075472007e-02 3 1  ON 54
CSFcoeff_56 -9.0749758239e-03 3 1  ON 55
CSFcoeff_57 -1.1608809874e-02 3 1  ON 56
CSFcoeff_58 -9.4534203681e-03 3 1  ON 57
CSFcoeff_59 7.5067027083e-03 3 1  ON 58
CSFcoeff_60 1.4383440364e-02 3 1  ON 59
CSFcoeff_61 -1.0160417049e-02 3 1  ON 60
CSFcoeff_62 -6.1474468897e-03 3 1  ON 61
CSFcoeff_63 8.4392775842e-03 3 1  ON 62
CSFcoeff_64 -1.0195793821e-02 3 1  ON 63
CSFcoeff_65 -8.8047264166e-03 3 1  ON 64
CSFcoeff_66 8.4797337419e-03 3 1  ON 65
CSFcoeff_67 9.2296037849e-03 3 1  ON 66
CSFcoeff_68 -9.6832882868e-03 3 1  ON 67
CSFcoeff_69 9.7147276985e-03 3 1  ON 68
CSFcoeff_70 -6.1891232464e-03 3 1  ON 69
CSFcoeff_71 -8.4219433003e-03 3 1  ON 70
CSFcoeff_72 5.4616462789e-03 3 1  ON 71
CSFcoeff_73 -9.2252591738e-03 3 1  ON 72
CSFcoeff_74 -1.0138091838e-02 3 1  ON 73
CSFcoeff_75 -5.9697853285e-03 3 1  ON 74
CSFcoeff_76 -8.5037659685e-03 3 1  ON 75
CSFcoeff_77 -8.5517499478e-03 3 1  ON 76
CSFcoeff_78 -1.0340393675e-02 3 1  ON 77
CSFcoeff_79 -9.1368089700e-03 3 1  ON 78
CSFcoeff_80 7.1193202992e-03 3 1  ON 79
CSFcoeff_81 7.3409721754e-03 3 1  ON 80
CSFcoeff_82 4.9701326414e-03 3 1  ON 81
CSFcoeff_83 -7.3887177507e-03 3 1  ON 82
CSFcoeff_84 -8.4874282381e-03 3 1  ON 83
CSFcoeff_85 -6.8521794920e-03 3 1  ON 84
CSFcoeff_86 -7.7881446936e-03 3 1  ON 85
CSFcoeff_87 7.9171034093e-03 3 1  ON 86
CSFcoeff_88 -8.4139044824e-03 3 1  ON 87
CSFcoeff_89 7.1588936175e-03 3 1  ON 88
CSFcoeff_90 -7.0477860971e-03 3 1  ON 89
CSFcoeff_91 -9.1451059326e-03 3 1  ON 90
CSFcoeff_92 8.5272680691e-03 3 1  ON 91
CSFcoeff_93 3.6513275003e-03 3 1  ON 92
CSFcoeff_94 -9.5854141802e-03 3 1  ON 93
CSFcoeff_95 6.9953783321e-03 3 1  ON 94
CSFcoeff_96 -8.4663162366e-03 3 1  ON 95
CSFcoeff_97 -8.0392213211e-03 3 1  ON 96
CSFcoeff_98 8.3239966422e-03 3 1  ON 97
CSFcoeff_99 -7.8482951515e-03 3 1  ON 98
CSFcoeff_100 1.4532650013e-02 3 1  ON 99
CSFcoeff_101 7.9271482843e-03 3 1  ON 100
CSFcoeff_102 -9.6679500384e-03 3 1  ON 101
CSFcoeff_103 6.7639969399e-03 3 1  ON 102
CSFcoeff_104 7.2974899569e-03 3 1  ON 103
CSFcoeff_105 6.4540957151e-03 3 1  ON 104
CSFcoeff_106 8.3357311018e-03 3 1  ON 105
CSFcoeff_107 -6.2169621470e-03 3 1  ON 106
CSFcoeff_108 8.8574611945e-03 3 1  ON 107
CSFcoeff_109 -5.3140950951e-03 3 1  ON 108
CSFcoeff_110 5.9352858780e-03 3 1  ON 109
CSFcoeff_111 -4.9917710293e-03 3 1  ON 110
CSFcoeff_112 6.5014185945e-03 3 1  ON 111
CSFcoeff_113 7.4720949270e-03 3 1  ON 112
CSFcoeff_114 6.2484121113e-03 3 1  ON 113
CSFcoeff_115 8.5931337168e-03 3 1  ON 114
CSFcoeff_116 6.4920367575e-03 3 1  ON 115
CSFcoeff_117 -7.9708810258e-03 3 1  ON 116
CSFcoeff_118 -4.3498578785e-03 3 1  ON 117
CSFcoeff_119 3.5620139036e-03 3 1  ON 118
CSFcoeff_120 -6.0770400863e-03 3 1  ON 119
CSFcoeff_121 -9.4755365956e-03 3 1  ON 120
CSFcoeff_122 -6.6131188045e-03 3 1  ON 121
CSFcoeff_123 6.2538409538e-03 3 1  ON 122
CSFcoeff_124 5.5388677809e-03 3 1  ON 123
CSFcoeff_125 -4.9114654700e-03 3 1  ON 124
CSFcoeff_126 -7.0605011890e-03 3 1  ON 125
CSFcoeff_127 4.6085479487e-03 3 1  ON 126
CSFcoeff_128 -9.4125651142e-03 3 1  ON 127
CSFcoeff_129 -4.3362778354e-03 3 1  ON 128
CSFcoeff_130 -8.1040780308e-03 3 1  ON 129
CSFcoeff_131 -7.3394441819e-03 3 1  ON 130
CSFcoeff_132 -9.4115389663e-03 3 1  ON 131
CSFcoeff_133 7.5297469782e-03 3 1  ON 132
CSFcoeff_134 -9.7310839797e-03 3 1  ON 133
CSFcoeff_135 -4.9726482863e-03 3 1  ON 134
CSFcoeff_136 6.1001481565e-03 3 1  ON 135
uu_0 2.6782209963e-01 1 1  ON 136
uu_1 1.6752692002e-01 1 1  ON 137
uu_2 8.2647502147e-02 1 1  ON 138
uu_3 6.1653903263e-02 1 1  ON 139
uu_4 4.0783916587e-02 1 1  ON 140
uu_5 2.9432722853e-02 1 1  ON 141
uu_6 2.7341035344e-02 1 1  ON 142
uu_7 1.2336808135e-02 1 1  ON 143
uu_8 1.6618300580e-02 1 1  ON 144
uu_9 -3.4850050817e-02 1 1  ON 145
ud_0 4.0741880573e-01 1 1  ON 146
ud_1 1.6143465062e-01 1 1  ON 147
ud_2 4.1752500815e-02 1 1  ON 148
ud_3 2.0093373265e-02 1 1  ON 149
ud_4 -5.6366663171e-03 1 1  ON 150
ud_5 -1.5313229117e-02 1 1  ON 151
ud_6 -2.1504650425e-02 1 1  ON 152
ud_7 -2.6339331301e-02 1 1  ON 153
ud_8 -2.7156243387e-02 1 1  ON 154
ud_9 -1.5604941495e-02 1 1  ON 155
eO_0 -1.4058346931e+00 1 1  ON 156
eO_1 -1.1170042337e+00 1 1  ON 157
eO_2 -6.4645707189e-01 1 1  ON 158
eO_3 -3.9196698271e-01 1 1  ON 159
eO_4 -2.2104900040e-01 1 1  ON 160
eO_5 -5.6882044533e-02 1 1  ON 161
eO_6 -1.4556263814e-02 1 1  ON 162
eO_7 -1.1966511886e-02 1 1  ON 163
eO_8 7.3507754740e-02 1 1  ON 164
eO_9 1.7471941536e-01 1 1  ON 165
eH_0 -2.3000048560e-01 1 1  ON 166
eH_1 -1.5022754111e-01 1 1  ON 167
eH_2 -1.2996773713e-01 1 1  ON 168
eH_3 -1.0238079441e-01 1 1  ON 169
eH_4 -7.5210822263e-02 1 1  ON 170
eH_5 -5.7398180696e-02 1 1  ON 171
eH_6 -7.3625390059e-02 1 1  ON 172
eH_7 -6.5568282466e-02 1 1  ON 173
eH_8 -3.5382556954e-02 1 1  ON 174
eH_9 -3.2109559005e-02 1 1  ON 175
uuO_0 2.0010978028e-05 1 1  ON 176
uuO_1 7.3803292088e-06 1 1  ON 177
uuO_2 -2.8629889462e-05 1 1  ON 178
uuO_3 -2.3839182726e-05 1 1  ON 179
uuO_4 -3.1784026663e-06 1 1  ON 180
uuO_5 2.1828495138e-06 1 1  ON 181
uuO_6 -8.1672144756e-06 1 1  ON 182
uuO_7 -3.3606823947e-05 1 1  ON 183
uuO_8 -1.3853406949e-05 1 1  ON 184
uuO_9 -7.4928277715e-06 1 1  ON 185
uuO_10 -2.5309534607e-05 1 1  ON 186
uuO_11 4.5528986132e-05 1 1  ON 187
uuO_12 -2.7028571716e-06 1 1  ON 188
uuO_13 3.1887467656e-05 1 1  ON 189
uuO_14 3.5990275203e-07 1 1  ON 190
uuO_15 2.5507254718e-07 1 1  ON 191
uuO_16 9.8733930338e-06 1 1  ON 192
uuO_17 4.7679357799e-05 1 1  ON 193
uuO_18 -4.4764483075e-05 1 1  ON 194
uuO_19 6.2243090807e-06 1 1  ON 195
uuO_20 -1.6651797967e-05 1 1  ON 196
uuO_21 6.4439520206e-06 1 1  ON 197
uuO_22 -1.1972587472e-06 1 1  ON 198
uuO_23 5.5792369861e-06 1 1  ON 199
uuO_24 -1.6682277534e-06 1 1  ON 200
uuO_25 3.0905514276e-07 1 1  ON 201
udO_0 -5.6621070462e-07 1 1  ON 202
udO_1 3.0651137537e-05 1 1  ON 203
udO_2 2.5417325497e-05 1 1  ON 204
udO_3 -1.0145206231e-05 1 1  ON 205
udO_4 -5.4160546505e-06 1 1  ON 206
udO_5 -1.7003377763e-07 1 1  ON 207
udO_6 7.7329175819e-05 1 1  ON 208
udO_7 -3.4325711358e-05 1 1  ON 209
udO_8 1.3995900111e-05 1 1  ON 210
udO_9 -5.4193887809e-05 1 1  ON 211
udO_10 -8.3256253107e-06 1 1  ON 212
udO_11 -1.2963011975e-07 1 1  ON 213
udO_12 -3.7637523574e-06 1 1  ON 214
udO_13 1.0369981398e-05 1 1  ON 215
udO_14 -1.5441861351e-06 1 1  ON 216
udO_15 5.3366755428e-07 1 1  ON 217
udO_16 7.8719587000e-05 1 1  ON 218
udO_17 -1.1880586005e-05 1 1  ON 219
udO_18 -3.2287692284e-06 1 1  ON 220
udO_19 2.5948827368e-06 1 1  ON 221
udO_20 -1.4626886308e-05 1 1  ON 222
udO_21 2.9375457494e-06 1 1  ON 223
udO_22 -7.3641992326e-07 1 1  ON 224
udO_23 2.5377282565e-06 1 1  ON 225
udO_24 -1.0332510556e-06 1 1  ON 226
udO_25 2.1814322495e-07 1 1  ON 227
uuH_0 3.4552572977e-06 1 1  ON 228
uuH_1 1.5256364417e-05 1 1  ON 229
uuH_2 4.2942800056e-06 1 1  ON 230
uuH_3 -5.5098830228e-06 1 1  ON 231
uuH_4 -1.6155149114e-06 1 1  ON 232
uuH_5 -9.0149688817e-07 1 1  ON 233
uuH_6 2.3545084036e-05 1 1  ON 234
uuH_7 -1.4647897289e-05 1 1  ON 235
uuH_8 1.1116819727e-06 1 1  ON 236
uuH_9 -1.9853378180e-05 1 1  ON 237
uuH_10 -3.6951329524e-06 1 1  ON 238
uuH_11 2.8439226156e-06 1 1  ON 239
uuH_12 -6.8998836450e-07 1 1  ON 240
uuH_13 7.6456866789e-06 1 1  ON 241
uuH_14 -9.6698014668e-07 1 1  ON 242
uuH_15 1.8448997230e-07 1 1  ON 243
uuH_16 2.9687430952e-05 1 1  ON 244
uuH_17 -3.4860838692e-06 1 1  ON 245
uuH_18 -4.1416356916e-07 1 1  ON 246
uuH_19 6.6669123930e-07 1 1  ON 247
uuH_20 -9.2332888450e-06 1 1  ON 248
uuH_21 7.9004921911e-07 1 1  ON 249
uuH_22 -2.2145434252e-07 1 1  ON 250
uuH_23 2.8161175850e-06 1 1  ON 251
uuH_24 -3.4823947536e-07 1 1  ON 252
uuH_25 7.2912561666e-08 1 1  ON 253
udH_0 -3.2990429897e-06 1 1  ON 254
udH_1 -8.1412855994e-06 1 1  ON 255
udH_2 -7.9842636405e-07 1 1  ON 256
udH_3 -9.3411667873e-07 1 1  ON 257
udH_4 -1.8500513489e-06 1 1  ON 258
udH_5 6.5231707861e-07 1 1  ON 259
udH_6 -7.5401274684e-06 1 1  ON 260
udH_7 -4.6258332233e-06 1 1  ON 261
udH_8 -3.4389552417e-06 1 1  ON 262
udH_9 1.0323340991e-05 1 1  ON 263
udH_10 -3.5997269459e-06 1 1  ON 264
udH_11 9.5142894046e-06 1 1  ON 265
udH_12 -1.0226097186e-06 1 1  ON 266
udH_13 -1.3726046279e-06 1 1  ON 267
udH_14 -8.4724468637e-07 1 1  ON 268
udH_15 2.3241269071e-07 1 1  ON 269
udH_16 -6.8020479659e-06 1 1  ON 270
udH_17 2.2165903358e-06 1 1  ON 271
udH_18 -8.6368256246e-06 1 1  ON 272
udH_19 2.0582551041e-06 1 1  ON 273
udH_20 1.3160631059e-06 1 1  ON 274
udH_21 1.3758573530e-06 1 1  ON 275
udH_22 -4.2543853834e-07 1 1  ON 276
udH_23 -1.7560222296e-07 1 1  ON 277
udH_24 -2.6848371921e-07 1 1  ON 278
udH_25 9.2520419518e-08 1 1  ON 279
  </optVariables>
   Restore the number of walkers to 16, removing 234 walkers.
</opt>
</optimization-report>
  QMC Execution time = 9.7936572765e+01 secs 
  Reusing QMCFixedSampleLinearOptimize
 Using QMCCostFunctionOMP::QMCCostFunctionOMP

=========================================================
  Start QMCFixedSampleLinearOptimize
  File Root H2O.s002 append = no 
=========================================================
  Skip QMCDriver::putQMCInfo 
  Resetting Properties of the walkers 1 x 14

=========================================================
  Start VMCSingleOMP
  File Root H2O.s002 append = no 
=========================================================
Using existing walkers 
  Resetting Properties of the walkers 1 x 14

<vmc function="put">
  qmc_counter=2  my_counter=2
  time step      = 5.0000000000e-01
  blocks         = 250
  steps          = 1
  substeps       = 20
  current        = 0
  target samples = 1.2800000000e+05
  walkers/mpi    = 16

  stepsbetweensamples = 1
<parameter name="blocks" condition="int">250</parameter>
<parameter name="check_properties" condition="int">100</parameter>
<parameter name="checkproperties" condition="int">100</parameter>
<parameter name="current" condition="int">0</parameter>
<parameter name="dmcwalkersperthread" condition="real">2.5000000000e+02</parameter>
<parameter name="maxcpusecs" condition="real">3.6000000000e+05</parameter>
<parameter name="record_configs" condition="int">0</parameter>
<parameter name="record_walkers" condition="int">1</parameter>
<parameter name="recordconfigs" condition="int">0</parameter>
<parameter name="recordwalkers" condition="int">1</parameter>
<parameter name="rewind" condition="int">0</parameter>
<parameter name="samples" condition="real">1.2800000000e+05</parameter>
<parameter name="samplesperthread" condition="real">2.5000000000e+02</parameter>
<parameter name="steps" condition="int">1</parameter>
<parameter name="stepsbetweensamples" condition="int">1</parameter>
<parameter name="store_configs" condition="int">0</parameter>
<parameter name="storeconfigs" condition="int">0</parameter>
<parameter name="sub_steps" condition="int">20</parameter>
<parameter name="substeps" condition="int">20</parameter>
<parameter name="tau" condition="au">5.0000000000e-01</parameter>
<parameter name="time_step" condition="au">5.0000000000e-01</parameter>
<parameter name="timestep" condition="au">5.0000000000e-01</parameter>
<parameter name="use_drift" condition="string">yes</parameter>
<parameter name="usedrift" condition="string">yes</parameter>
<parameter name="walkers" condition="int">16</parameter>
<parameter name="warmup_steps" condition="int">25</parameter>
<parameter name="warmupsteps" condition="int">25</parameter>
  DumpConfig==false Nothing (configurations, state) will be saved.
  Walker Samples are dumped every 1 steps.
</vmc>

 TraceManager::put() 1
  traces requested          : 1
  method allows traces      : 0
  traces available          : 0

  EstimatorManager::add replace LocalEnergy estimator.

 TraceManager::put() 1
  traces requested          : 0
  method allows traces      : 0
  traces available          : 0

  EstimatorManager::add replace LocalEnergy estimator.
<optimization-report>
<vmc stage="main" blocks="250">
  Cannot make clones again. Use existing 16 clones
  Initial partition of walkers 0 1 2 3 4 5 6 7 8 9 10 11 12 13 14 15 16 
  Total Sample Size   =128000
  Walker distribution on root = 0 1 2 3 4 5 6 7 8 9 10 11 12 13 14 15 16 
====================================================
  SimpleFixedNodeBranch::finalize after a VMC block
    QMC counter        = 2
    time step          = 0.5
    reference energy   = -17.231
    reference variance = 0.431541
====================================================
  Execution time = 2.0621502651e+01
</vmc>
<opt stage="setup">
  <log>
   Reading configurations from h5FileRoot H2O.s002
  QMCCostFunctionOMP is created with 16
   Loading configuration from MCWalkerConfiguration::SampleStack 
    number of walkers before load 16
  Using Nonlocal PP in Opt: NonLocalECP
    number of walkers after load: 250 250 250 250 250 250 250 250 250 250 250 250 250 250 250 250 
Using buffers for temporary storage in QMCCostFunction.

Memory usage: 
Linear method (approx matrix usage: 4*N^2): 2.5088000000e+00 MB
Deriv,HDerivRecord:      2.6880000000e+01 MB
Buffer memory cost:     MB/walker       MB/total 
Orbitals only:           2.1760000000e-03      8.7040000000e+00
Orbitals + dervs:        1.0880000000e-02      4.3520000000e+01
Inverse:                 2.5600000000e-04      1.0240000000e+00
Determinants:            2.8016000000e-02      1.1206400000e+02
  VMC Eavg = -1.6219093252e+01
  VMC Evar = 7.0092854754e+00
  Total weights = 1.2800000000e+05
  Execution time = 4.0751341900e+00
  </log>
</opt>
<opt stage="main" walkers="128000">
  <log>
Iteration: 1/1
od_largest 7.9403181462e+07
  stabilityBase -6.0000000000e+00
  stabilizerScale 4.8380097988e+00
  Using XS:-6.0000000000e+00 0 0
ERROR CostFunction-> Number of Effective Walkers is too small 1.6065243820e+00
ERROR CostFunction-> Number of Effective Walkers is too small 1.2418814285e+00
ERROR CostFunction-> Number of Effective Walkers is too small 1.9548849563e+00
ERROR CostFunction-> Number of Effective Walkers is too small 1.8935245562e+00
ERROR CostFunction-> Number of Effective Walkers is too small 1.7931033550e+00
ERROR CostFunction-> Number of Effective Walkers is too small 1.9548849563e+00
  Failed Step. Largest LM parameter change:1.0760830880e+02
ERROR   Using XS:-1.1619902012e+00 1 0
ERROR CostFunction-> Number of Effective Walkers is too small 1.0265085986e+00
ERROR CostFunction-> Number of Effective Walkers is too small 1.0000233476e+00
ERROR CostFunction-> Number of Effective Walkers is too small 1.0002178207e+00
ERROR CostFunction-> Number of Effective Walkers is too small 1.0000018418e+00
ERROR CostFunction-> Number of Effective Walkers is too small 1.0000000156e+00
ERROR CostFunction-> Number of Effective Walkers is too small 1.0000000001e+00
  Failed Step. Largest LM parameter change:7.3836268369e+01
ERROR   Using XS:3.6760195977e+00 2 0
  Good Step. Largest LM parameter change:5.4115858237e-01
 OldCost: -1.6370470431e+01 NewCost: -1.6377873420e+01 Delta Cost:-7.4029894190e-03
      Current ene:     -1.7251154755e+01
      Current var:     2.1447194456e-01
      Current ene_urw:     -1.7246974193e+01
      Current var_urw: 4.6622131894e-01
Setting new Parameters
ERROR   Execution time = 9.7741512428e+01
  </log>
  <optVariables href="H2O.s002.opt.xml">
CSFcoeff_1 -1.8500398995e-02 3 1  ON 0
CSFcoeff_2 3.2502032741e-02 3 1  ON 1
CSFcoeff_3 -1.8708177517e-02 3 1  ON 2
CSFcoeff_4 -2.0205524691e-02 3 1  ON 3
CSFcoeff_5 1.3108838558e-02 3 1  ON 4
CSFcoeff_6 -1.8000142482e-02 3 1  ON 5
CSFcoeff_7 -1.2501421076e-02 3 1  ON 6
CSFcoeff_8 -1.5524944066e-02 3 1  ON 7
CSFcoeff_9 -1.3351499477e-02 3 1  ON 8
CSFcoeff_10 -1.3143682077e-02 3 1  ON 9
CSFcoeff_11 -1.2799919874e-02 3 1  ON 10
CSFcoeff_12 -1.3522757218e-02 3 1  ON 11
CSFcoeff_13 1.1812764869e-02 3 1  ON 12
CSFcoeff_14 -1.5077471577e-02 3 1  ON 13
CSFcoeff_15 8.3101871529e-03 3 1  ON 14
CSFcoeff_16 -1.5609831236e-02 3 1  ON 15
CSFcoeff_17 -1.3156664862e-02 3 1  ON 16
CSFcoeff_18 -1.0666228195e-02 3 1  ON 17
CSFcoeff_19 -9.8508035609e-03 3 1  ON 18
CSFcoeff_20 9.4095009942e-03 3 1  ON 19
CSFcoeff_21 -1.2225774495e-02 3 1  ON 20
CSFcoeff_22 -1.2774850657e-02 3 1  ON 21
CSFcoeff_23 -1.4132077466e-02 3 1  ON 22
CSFcoeff_24 -1.1614313025e-02 3 1  ON 23
CSFcoeff_25 -1.2554221108e-02 3 1  ON 24
CSFcoeff_26 -1.3355411657e-02 3 1  ON 25
CSFcoeff_27 -1.2408527995e-02 3 1  ON 26
CSFcoeff_28 -1.1999672474e-02 3 1  ON 27
CSFcoeff_29 -5.0437684612e-03 3 1  ON 28
CSFcoeff_30 -1.1726170435e-02 3 1  ON 29
CSFcoeff_31 1.0838463530e-02 3 1  ON 30
CSFcoeff_32 -9.2660849306e-03 3 1  ON 31
CSFcoeff_33 -1.0993796048e-02 3 1  ON 32
CSFcoeff_34 4.4237350554e-03 3 1  ON 33
CSFcoeff_35 -9.6000285571e-03 3 1  ON 34
CSFcoeff_36 -1.1430384057e-02 3 1  ON 35
CSFcoeff_37 -8.3403075591e-03 3 1  ON 36
CSFcoeff_38 -3.8242019661e-03 3 1  ON 37
CSFcoeff_39 9.8470316726e-03 3 1  ON 38
CSFcoeff_40 1.6269321277e-02 3 1  ON 39
CSFcoeff_41 -6.3007379648e-03 3 1  ON 40
CSFcoeff_42 -4.1301561645e-03 3 1  ON 41
CSFcoeff_43 1.0570893585e-02 3 1  ON 42
CSFcoeff_44 6.7423008836e-03 3 1  ON 43
CSFcoeff_45 8.8308328014e-03 3 1  ON 44
CSFcoeff_46 -3.0231711840e-03 3 1  ON 45
CSFcoeff_47 7.1692446196e-03 3 1  ON 46
CSFcoeff_48 -6.3321752874e-03 3 1  ON 47
CSFcoeff_49 -9.8365774636e-03 3 1  ON 48
CSFcoeff_50 -1.0417243479e-02 3 1  ON 49
CSFcoeff_51 7.8939610702e-03 3 1  ON 50
CSFcoeff_52 7.0681963830e-03 3 1  ON 51
CSFcoeff_53 7.8081263194e-03 3 1  ON 52
CSFcoeff_54 -6.4023486481e-03 3 1  ON 53
CSFcoeff_55 -9.9119839342e-03 3 1  ON 54
CSFcoeff_56 -7.5106768539e-03 3 1  ON 55
CSFcoeff_57 -1.1117817318e-02 3 1  ON 56
CSFcoeff_58 -7.9364575747e-03 3 1  ON 57
CSFcoeff_59 6.9857196028e-03 3 1  ON 58
CSFcoeff_60 1.4864902017e-02 3 1  ON 59
CSFcoeff_61 -9.3081924483e-03 3 1  ON 60
CSFcoeff_62 -5.1374658929e-03 3 1  ON 61
CSFcoeff_63 6.4004152544e-03 3 1  ON 62
CSFcoeff_64 -8.7590357296e-03 3 1  ON 63
CSFcoeff_65 -7.6674754795e-03 3 1  ON 64
CSFcoeff_66 7.5697502837e-03 3 1  ON 65
CSFcoeff_67 8.6337594264e-03 3 1  ON 66
CSFcoeff_68 -8.9378633639e-03 3 1  ON 67
CSFcoeff_69 9.7655964390e-03 3 1  ON 68
CSFcoeff_70 -6.4792360643e-03 3 1  ON 69
CSFcoeff_71 -8.2198141920e-03 3 1  ON 70
CSFcoeff_72 4.1353548942e-03 3 1  ON 71
CSFcoeff_73 -7.9194769689e-03 3 1  ON 72
CSFcoeff_74 -9.0879388075e-03 3 1  ON 73
CSFcoeff_75 -5.9075093522e-03 3 1  ON 74
CSFcoeff_76 -8.0525611149e-03 3 1  ON 75
CSFcoeff_77 -6.9695010235e-03 3 1  ON 76
CSFcoeff_78 -9.9315370845e-03 3 1  ON 77
CSFcoeff_79 -7.7655688161e-03 3 1  ON 78
CSFcoeff_80 5.1929484131e-03 3 1  ON 79
CSFcoeff_81 6.3838784054e-03 3 1  ON 80
CSFcoeff_82 2.7158668446e-03 3 1  ON 81
CSFcoeff_83 -7.8501740620e-03 3 1  ON 82
CSFcoeff_84 -7.6079334439e-03 3 1  ON 83
CSFcoeff_85 -5.2129179956e-03 3 1  ON 84
CSFcoeff_86 -7.3154427797e-03 3 1  ON 85
CSFcoeff_87 5.6987159435e-03 3 1  ON 86
CSFcoeff_88 -7.2467460865e-03 3 1  ON 87
CSFcoeff_89 5.9916318814e-03 3 1  ON 88
CSFcoeff_90 -6.0631914370e-03 3 1  ON 89
CSFcoeff_91 -8.6003738218e-03 3 1  ON 90
CSFcoeff_92 7.6857319480e-03 3 1  ON 91
CSFcoeff_93 2.8154019145e-03 3 1  ON 92
CSFcoeff_94 -7.6346388509e-03 3 1  ON 93
CSFcoeff_95 5.4959967616e-03 3 1  ON 94
CSFcoeff_96 -7.6493394397e-03 3 1  ON 95
CSFcoeff_97 -7.0120662096e-03 3 1  ON 96
CSFcoeff_98 7.3058305229e-03 3 1  ON 97
CSFcoeff_99 -7.8505654707e-03 3 1  ON 98
CSFcoeff_100 1.5568418779e-02 3 1  ON 99
CSFcoeff_101 6.4777681191e-03 3 1  ON 100
CSFcoeff_102 -8.0160322244e-03 3 1  ON 101
CSFcoeff_103 5.5233708880e-03 3 1  ON 102
CSFcoeff_104 6.1977491825e-03 3 1  ON 103
CSFcoeff_105 5.6556800495e-03 3 1  ON 104
CSFcoeff_106 9.5777813110e-03 3 1  ON 105
CSFcoeff_107 -5.4378961323e-03 3 1  ON 106
CSFcoeff_108 8.0008031315e-03 3 1  ON 107
CSFcoeff_109 -5.1393264855e-03 3 1  ON 108
CSFcoeff_110 4.6845424951e-03 3 1  ON 109
CSFcoeff_111 -4.4441637795e-03 3 1  ON 110
CSFcoeff_112 5.8076459211e-03 3 1  ON 111
CSFcoeff_113 6.3819504021e-03 3 1  ON 112
CSFcoeff_114 5.5231714384e-03 3 1  ON 113
CSFcoeff_115 8.3921269277e-03 3 1  ON 114
CSFcoeff_116 5.8897577750e-03 3 1  ON 115
CSFcoeff_117 -6.6719967920e-03 3 1  ON 116
CSFcoeff_118 -3.4778171738e-03 3 1  ON 117
CSFcoeff_119 2.1600581808e-03 3 1  ON 118
CSFcoeff_120 -4.4914003251e-03 3 1  ON 119
CSFcoeff_121 -9.9399557945e-03 3 1  ON 120
CSFcoeff_122 -5.5092457755e-03 3 1  ON 121
CSFcoeff_123 7.2912675520e-03 3 1  ON 122
CSFcoeff_124 4.7831338700e-03 3 1  ON 123
CSFcoeff_125 -4.2390706277e-03 3 1  ON 124
CSFcoeff_126 -6.1082715324e-03 3 1  ON 125
CSFcoeff_127 3.3053536275e-03 3 1  ON 126
CSFcoeff_128 -8.0972165096e-03 3 1  ON 127
CSFcoeff_129 -5.1858199999e-03 3 1  ON 128
CSFcoeff_130 -7.1966256565e-03 3 1  ON 129
CSFcoeff_131 -6.3292709756e-03 3 1  ON 130
CSFcoeff_132 -8.7490297720e-03 3 1  ON 131
CSFcoeff_133 7.6742674012e-03 3 1  ON 132
CSFcoeff_134 -1.0283323555e-02 3 1  ON 133
CSFcoeff_135 -3.2901242204e-03 3 1  ON 134
CSFcoeff_136 5.4459229125e-03 3 1  ON 135
uu_0 3.7554231880e-01 1 1  ON 136
uu_1 2.1517089626e-01 1 1  ON 137
uu_2 1.3992783887e-01 1 1  ON 138
uu_3 9.8982581763e-02 1 1  ON 139
uu_4 7.5222367170e-02 1 1  ON 140
uu_5 5.6244569208e-02 1 1  ON 141
uu_6 4.4452552100e-02 1 1  ON 142
uu_7 3.0903228615e-02 1 1  ON 143
uu_8 2.9956642809e-02 1 1  ON 144
uu_9 2.6383182813e-03 1 1  ON 145
ud_0 4.7575692661e-01 1 1  ON 146
ud_1 1.9201126462e-01 1 1  ON 147
ud_2 7.1637146629e-02 1 1  ON 148
ud_3 3.1695190931e-02 1 1  ON 149
ud_4 1.5339202652e-02 1 1  ON 150
ud_5 -1.7439058694e-03 1 1  ON 151
ud_6 -1.2485818788e-02 1 1  ON 152
ud_7 -2.5531021148e-02 1 1  ON 153
ud_8 -1.6417470040e-02 1 1  ON 154
ud_9 -1.9697309689e-02 1 1  ON 155
eO_0 -1.9469932755e+00 1 1  ON 156
eO_1 -1.6347049693e+00 1 1  ON 157
eO_2 -1.0931970457e+00 1 1  ON 158
eO_3 -7.3082311017e-01 1 1  ON 159
eO_4 -4.5736080179e-01 1 1  ON 160
eO_5 -2.2992813435e-01 1 1  ON 161
eO_6 -1.9126032750e-01 1 1  ON 162
eO_7 -1.5017768340e-01 1 1  ON 163
eO_8 -6.4882637703e-02 1 1  ON 164
eO_9 4.4884124995e-02 1 1  ON 165
eH_0 -2.1198117719e-01 1 1  ON 166
eH_1 -1.5165327048e-01 1 1  ON 167
eH_2 -1.2987434648e-01 1 1  ON 168
eH_3 -8.6991536239e-02 1 1  ON 169
eH_4 -4.7902291400e-02 1 1  ON 170
eH_5 -3.2194043698e-02 1 1  ON 171
eH_6 -4.9468017710e-02 1 1  ON 172
eH_7 -4.5432769993e-02 1 1  ON 173
eH_8 1.3946353055e-02 1 1  ON 174
eH_9 1.4338742695e-04 1 1  ON 175
uuO_0 6.7849395537e-06 1 1  ON 176
uuO_1 2.9982238350e-06 1 1  ON 177
uuO_2 1.5742698787e-06 1 1  ON 178
uuO_3 -9.7349253334e-06 1 1  ON 179
uuO_4 -3.1387992616e-06 1 1  ON 180
uuO_5 2.8291514223e-06 1 1  ON 181
uuO_6 -1.7762845832e-06 1 1  ON 182
uuO_7 1.0050440528e-05 1 1  ON 183
uuO_8 1.3758748500e-05 1 1  ON 184
uuO_9 -8.6237805296e-06 1 1  ON 185
uuO_10 -6.8726095101e-06 1 1  ON 186
uuO_11 -1.2812776034e-05 1 1  ON 187
uuO_12 -3.5338257078e-06 1 1  ON 188
uuO_13 1.0870293424e-05 1 1  ON 189
uuO_14 3.8780757106e-06 1 1  ON 190
uuO_15 -3.1013784934e-08 1 1  ON 191
uuO_16 2.2335934256e-05 1 1  ON 192
uuO_17 4.7461349951e-06 1 1  ON 193
uuO_18 9.3593997995e-06 1 1  ON 194
uuO_19 7.6419953636e-08 1 1  ON 195
uuO_20 -9.7366291530e-06 1 1  ON 196
uuO_21 -1.5078913247e-06 1 1  ON 197
uuO_22 1.7868058768e-07 1 1  ON 198
uuO_23 3.4576005268e-06 1 1  ON 199
uuO_24 -8.6727546696e-09 1 1  ON 200
uuO_25 -2.5876839174e-08 1 1  ON 201
udO_0 3.4993449104e-06 1 1  ON 202
udO_1 1.4543014566e-05 1 1  ON 203
udO_2 1.6368373089e-05 1 1  ON 204
udO_3 -1.2434723497e-05 1 1  ON 205
udO_4 -5.0231133677e-06 1 1  ON 206
udO_5 1.7428260157e-06 1 1  ON 207
udO_6 2.0707536964e-05 1 1  ON 208
udO_7 1.4574378243e-05 1 1  ON 209
udO_8 2.8031049755e-05 1 1  ON 210
udO_9 -1.9116090046e-05 1 1  ON 211
udO_10 -6.3516750448e-06 1 1  ON 212
udO_11 -2.6810537975e-05 1 1  ON 213
udO_12 -6.4947618626e-06 1 1  ON 214
udO_13 8.8630780380e-06 1 1  ON 215
udO_14 6.5360123386e-06 1 1  ON 216
udO_15 -3.0985329261e-08 1 1  ON 217
udO_16 2.5275182319e-05 1 1  ON 218
udO_17 2.9536175867e-07 1 1  ON 219
udO_18 1.7410052767e-05 1 1  ON 220
udO_19 6.5327162914e-07 1 1  ON 221
udO_20 -4.2768012033e-06 1 1  ON 222
udO_21 -3.0720415118e-06 1 1  ON 223
udO_22 2.6563518900e-07 1 1  ON 224
udO_23 4.0454069465e-07 1 1  ON 225
udO_24 3.7427588247e-07 1 1  ON 226
udO_25 -7.1203246810e-08 1 1  ON 227
uuH_0 5.6460337829e-07 1 1  ON 228
uuH_1 1.5517585903e-05 1 1  ON 229
uuH_2 6.7653538501e-06 1 1  ON 230
uuH_3 -1.9840913340e-06 1 1  ON 231
uuH_4 -8.2060344438e-07 1 1  ON 232
uuH_5 -1.3609049972e-06 1 1  ON 233
uuH_6 2.7013893841e-05 1 1  ON 234
uuH_7 -1.2650661015e-05 1 1  ON 235
uuH_8 1.3301337306e-06 1 1  ON 236
uuH_9 -1.8503244025e-05 1 1  ON 237
uuH_10 -4.0361405842e-07 1 1  ON 238
uuH_11 -1.7133509032e-06 1 1  ON 239
uuH_12 8.3732113482e-08 1 1  ON 240
uuH_13 2.2082065198e-06 1 1  ON 241
uuH_14 -1.3163490778e-06 1 1  ON 242
uuH_15 1.2274743505e-07 1 1  ON 243
uuH_16 2.9432643553e-05 1 1  ON 244
uuH_17 -1.0706186550e-05 1 1  ON 245
uuH_18 5.4638581108e-06 1 1  ON 246
uuH_19 -4.6058811872e-07 1 1  ON 247
uuH_20 -6.8588246890e-06 1 1  ON 248
uuH_21 -8.8552378794e-08 1 1  ON 249
uuH_22 -2.8799613044e-09 1 1  ON 250
uuH_23 2.0936350362e-06 1 1  ON 251
uuH_24 -1.2326141988e-07 1 1  ON 252
uuH_25 1.8930421877e-08 1 1  ON 253
udH_0 -5.3299730481e-06 1 1  ON 254
udH_1 -1.7485372548e-05 1 1  ON 255
udH_2 6.6679567810e-07 1 1  ON 256
udH_3 4.0874361109e-06 1 1  ON 257
udH_4 -6.3728037876e-07 1 1  ON 258
udH_5 1.4246657851e-06 1 1  ON 259
udH_6 -2.0908229420e-05 1 1  ON 260
udH_7 9.4188130329e-06 1 1  ON 261
udH_8 -6.9561898565e-07 1 1  ON 262
udH_9 1.9128338638e-05 1 1  ON 263
udH_10 1.8333930650e-06 1 1  ON 264
udH_11 -2.0650763512e-06 1 1  ON 265
udH_12 -2.0794731638e-07 1 1  ON 266
udH_13 -7.1672746292e-06 1 1  ON 267
udH_14 -1.7185653437e-07 1 1  ON 268
udH_15 7.1410211939e-08 1 1  ON 269
udH_16 -1.3229320424e-05 1 1  ON 270
udH_17 -4.8869595865e-06 1 1  ON 271
udH_18 1.9301791938e-06 1 1  ON 272
udH_19 2.2204191122e-07 1 1  ON 273
udH_20 4.1272184687e-06 1 1  ON 274
udH_21 -2.5663439930e-07 1 1  ON 275
udH_22 -4.2366904245e-08 1 1  ON 276
udH_23 -8.6917281167e-07 1 1  ON 277
udH_24 6.9738054160e-08 1 1  ON 278
udH_25 4.8414853201e-09 1 1  ON 279
  </optVariables>
   Restore the number of walkers to 16, removing 234 walkers.
</opt>
</optimization-report>
  QMC Execution time = 9.8031958141e+01 secs 
  Reusing QMCFixedSampleLinearOptimize
 Using QMCCostFunctionOMP::QMCCostFunctionOMP

=========================================================
  Start QMCFixedSampleLinearOptimize
  File Root H2O.s003 append = no 
=========================================================
  Skip QMCDriver::putQMCInfo 
  Resetting Properties of the walkers 1 x 14

=========================================================
  Start VMCSingleOMP
  File Root H2O.s003 append = no 
=========================================================
Using existing walkers 
  Resetting Properties of the walkers 1 x 14

<vmc function="put">
  qmc_counter=3  my_counter=3
  time step      = 5.0000000000e-01
  blocks         = 250
  steps          = 1
  substeps       = 20
  current        = 0
  target samples = 1.2800000000e+05
  walkers/mpi    = 16

  stepsbetweensamples = 1
<parameter name="blocks" condition="int">250</parameter>
<parameter name="check_properties" condition="int">100</parameter>
<parameter name="checkproperties" condition="int">100</parameter>
<parameter name="current" condition="int">0</parameter>
<parameter name="dmcwalkersperthread" condition="real">2.5000000000e+02</parameter>
<parameter name="maxcpusecs" condition="real">3.6000000000e+05</parameter>
<parameter name="record_configs" condition="int">0</parameter>
<parameter name="record_walkers" condition="int">1</parameter>
<parameter name="recordconfigs" condition="int">0</parameter>
<parameter name="recordwalkers" condition="int">1</parameter>
<parameter name="rewind" condition="int">0</parameter>
<parameter name="samples" condition="real">1.2800000000e+05</parameter>
<parameter name="samplesperthread" condition="real">2.5000000000e+02</parameter>
<parameter name="steps" condition="int">1</parameter>
<parameter name="stepsbetweensamples" condition="int">1</parameter>
<parameter name="store_configs" condition="int">0</parameter>
<parameter name="storeconfigs" condition="int">0</parameter>
<parameter name="sub_steps" condition="int">20</parameter>
<parameter name="substeps" condition="int">20</parameter>
<parameter name="tau" condition="au">5.0000000000e-01</parameter>
<parameter name="time_step" condition="au">5.0000000000e-01</parameter>
<parameter name="timestep" condition="au">5.0000000000e-01</parameter>
<parameter name="use_drift" condition="string">yes</parameter>
<parameter name="usedrift" condition="string">yes</parameter>
<parameter name="walkers" condition="int">16</parameter>
<parameter name="warmup_steps" condition="int">25</parameter>
<parameter name="warmupsteps" condition="int">25</parameter>
  DumpConfig==false Nothing (configurations, state) will be saved.
  Walker Samples are dumped every 1 steps.
</vmc>

 TraceManager::put() 1
  traces requested          : 1
  method allows traces      : 0
  traces available          : 0

  EstimatorManager::add replace LocalEnergy estimator.

 TraceManager::put() 1
  traces requested          : 0
  method allows traces      : 0
  traces available          : 0

  EstimatorManager::add replace LocalEnergy estimator.
<optimization-report>
<vmc stage="main" blocks="250">
  Cannot make clones again. Use existing 16 clones
  Initial partition of walkers 0 1 2 3 4 5 6 7 8 9 10 11 12 13 14 15 16 
  Total Sample Size   =128000
  Walker distribution on root = 0 1 2 3 4 5 6 7 8 9 10 11 12 13 14 15 16 
====================================================
  SimpleFixedNodeBranch::finalize after a VMC block
    QMC counter        = 3
    time step          = 0.5
    reference energy   = -17.2424
    reference variance = 0.579952
====================================================
  Execution time = 2.0559211599e+01
</vmc>
<opt stage="setup">
  <log>
   Reading configurations from h5FileRoot H2O.s003
  QMCCostFunctionOMP is created with 16
   Loading configuration from MCWalkerConfiguration::SampleStack 
    number of walkers before load 16
  Using Nonlocal PP in Opt: NonLocalECP
    number of walkers after load: 250 250 250 250 250 250 250 250 250 250 250 250 250 250 250 250 
Using buffers for temporary storage in QMCCostFunction.

Memory usage: 
Linear method (approx matrix usage: 4*N^2): 2.5088000000e+00 MB
Deriv,HDerivRecord:      2.6880000000e+01 MB
Buffer memory cost:     MB/walker       MB/total 
Orbitals only:           2.1760000000e-03      8.7040000000e+00
Orbitals + dervs:        1.0880000000e-02      4.3520000000e+01
Inverse:                 2.5600000000e-04      1.0240000000e+00
Determinants:            2.8016000000e-02      1.1206400000e+02
  VMC Eavg = -1.5552420996e+01
  VMC Evar = 1.6233943480e+01
  Total weights = 1.2800000000e+05
  Execution time = 4.0871159450e+00
  </log>
</opt>
<opt stage="main" walkers="128000">
  <log>
Iteration: 1/1
od_largest 2.6608012432e+07
  stabilityBase -6.0000000000e+00
  stabilizerScale 4.8380097988e+00
  Using XS:-6.0000000000e+00 0 0
ERROR CostFunction-> Number of Effective Walkers is too small 2.3679080550e+02
ERROR CostFunction-> Number of Effective Walkers is too small 1.0209423602e+00
ERROR CostFunction-> Number of Effective Walkers is too small 1.0003812115e+00
ERROR CostFunction-> Number of Effective Walkers is too small 1.0000084722e+00
ERROR CostFunction-> Number of Effective Walkers is too small 1.0000001958e+00
ERROR CostFunction-> Number of Effective Walkers is too small 1.0000000046e+00
[...]
====================================================
  Execution time = 2.0508243341e+01
</vmc>
<opt stage="setup">
  <log>
   Reading configurations from h5FileRoot H2O.s007
  QMCCostFunctionOMP is created with 16
   Loading configuration from MCWalkerConfiguration::SampleStack 
    number of walkers before load 16
  Using Nonlocal PP in Opt: NonLocalECP
    number of walkers after load: 250 250 250 250 250 250 250 250 250 250 250 250 250 250 250 250 
Using buffers for temporary storage in QMCCostFunction.

Memory usage: 
Linear method (approx matrix usage: 4*N^2): 2.5088000000e+00 MB
Deriv,HDerivRecord:      2.6880000000e+01 MB
Buffer memory cost:     MB/walker       MB/total 
Orbitals only:           2.1760000000e-03      8.7040000000e+00
Orbitals + dervs:        1.0880000000e-02      4.3520000000e+01
Inverse:                 2.5600000000e-04      1.0240000000e+00
Determinants:            2.8016000000e-02      1.1206400000e+02
  VMC Eavg = -8.3516150966e+00
  VMC Evar = 4.5199748074e+02
  Total weights = 1.2800000000e+05
  Execution time = 4.0608044412e+00
  </log>
</opt>
<opt stage="main" walkers="128000">
  <log>
Iteration: 1/1
od_largest 5.7997156052e+07
  stabilityBase -6.0000000000e+00
  stabilizerScale 4.8380097988e+00
  Using XS:-6.0000000000e+00 0 0
ERROR CostFunction-> Number of Effective Walkers is too small 1.6127357648e+01
ERROR CostFunction-> Number of Effective Walkers is too small 1.4696943511e+00
ERROR CostFunction-> Number of Effective Walkers is too small 1.0003960276e+00
ERROR CostFunction-> Number of Effective Walkers is too small 1.0000112577e+00
ERROR CostFunction-> Number of Effective Walkers is too small 1.0023498940e+00
ERROR CostFunction-> Number of Effective Walkers is too small 1.0003960276e+00
  Failed Step. Largest LM parameter change:1.1810447821e+02
ERROR   Using XS:-1.1619902012e+00 1 0
ERROR CostFunction-> Number of Effective Walkers is too small 1.3583172944e+01
ERROR CostFunction-> Number of Effective Walkers is too small 1.4382450046e+00
ERROR CostFunction-> Number of Effective Walkers is too small 1.0002703342e+00
ERROR CostFunction-> Number of Effective Walkers is too small 1.0000065965e+00
ERROR CostFunction-> Number of Effective Walkers is too small 1.0017313037e+00
ERROR CostFunction-> Number of Effective Walkers is too small 1.0002703342e+00
  Failed Step. Largest LM parameter change:1.2315697595e+02
ERROR   Using XS:3.6760195977e+00 2 0
  Good Step. Largest LM parameter change:3.0210225694e-01
 OldCost: -1.6380177445e+01 NewCost: -1.6380774239e+01 Delta Cost:-5.9679404723e-04
      Current ene:     -1.7253842696e+01
      Current var:     2.0752643698e-01
      Current ene_urw:     -1.7253052085e+01
      Current var_urw: 2.2031670435e-01
Setting new Parameters
ERROR   Execution time = 9.7850156449e+01
  </log>
  <optVariables href="H2O.s007.opt.xml">
CSFcoeff_1 -1.4127989599e-02 3 1  ON 0
CSFcoeff_2 3.4195034944e-02 3 1  ON 1
CSFcoeff_3 -1.6319095818e-02 3 1  ON 2
CSFcoeff_4 -1.5539118951e-02 3 1  ON 3
CSFcoeff_5 1.1938713672e-02 3 1  ON 4
CSFcoeff_6 -1.4678556920e-02 3 1  ON 5
CSFcoeff_7 -6.4459636591e-03 3 1  ON 6
CSFcoeff_8 -1.2329327496e-02 3 1  ON 7
CSFcoeff_9 -1.1587198430e-02 3 1  ON 8
CSFcoeff_10 -9.5291305746e-03 3 1  ON 9
CSFcoeff_11 -6.9672153017e-03 3 1  ON 10
CSFcoeff_12 -1.2149297290e-02 3 1  ON 11
CSFcoeff_13 8.4164511435e-03 3 1  ON 12
CSFcoeff_14 -1.0247509355e-02 3 1  ON 13
CSFcoeff_15 7.1255300774e-03 3 1  ON 14
CSFcoeff_16 -1.3084380487e-02 3 1  ON 15
CSFcoeff_17 -1.0397826501e-02 3 1  ON 16
CSFcoeff_18 -8.6204007817e-03 3 1  ON 17
CSFcoeff_19 -7.2840004905e-03 3 1  ON 18
CSFcoeff_20 9.0849849210e-03 3 1  ON 19
CSFcoeff_21 -7.2404716794e-03 3 1  ON 20
CSFcoeff_22 -1.0483660995e-02 3 1  ON 21
CSFcoeff_23 -1.3556207476e-02 3 1  ON 22
CSFcoeff_24 -9.1994037020e-03 3 1  ON 23
CSFcoeff_25 -6.6309134339e-03 3 1  ON 24
CSFcoeff_26 -8.3747698832e-03 3 1  ON 25
CSFcoeff_27 -8.7414628052e-03 3 1  ON 26
CSFcoeff_28 -7.2831021771e-03 3 1  ON 27
CSFcoeff_29 -3.7183345964e-03 3 1  ON 28
CSFcoeff_30 -1.0179063721e-02 3 1  ON 29
CSFcoeff_31 9.7238190999e-03 3 1  ON 30
CSFcoeff_32 -7.2941287623e-03 3 1  ON 31
CSFcoeff_33 -7.5196766493e-03 3 1  ON 32
CSFcoeff_34 2.1939681668e-03 3 1  ON 33
CSFcoeff_35 -6.6219702718e-03 3 1  ON 34
CSFcoeff_36 -1.2133799651e-02 3 1  ON 35
CSFcoeff_37 -7.0105085577e-03 3 1  ON 36
CSFcoeff_38 -2.8331227483e-03 3 1  ON 37
CSFcoeff_39 6.4027378287e-03 3 1  ON 38
CSFcoeff_40 1.4119855551e-02 3 1  ON 39
CSFcoeff_41 -4.1333766377e-03 3 1  ON 40
CSFcoeff_42 -2.7906038907e-03 3 1  ON 41
CSFcoeff_43 8.4554643949e-03 3 1  ON 42
CSFcoeff_44 3.5969983247e-03 3 1  ON 43
CSFcoeff_45 3.6628117027e-03 3 1  ON 44
CSFcoeff_46 -2.6001643220e-03 3 1  ON 45
CSFcoeff_47 2.8030990784e-03 3 1  ON 46
CSFcoeff_48 -5.4180885094e-03 3 1  ON 47
CSFcoeff_49 -7.0588303310e-03 3 1  ON 48
CSFcoeff_50 -9.3453503059e-03 3 1  ON 49
CSFcoeff_51 4.9110251671e-03 3 1  ON 50
CSFcoeff_52 3.8226701302e-03 3 1  ON 51
CSFcoeff_53 8.0528431250e-03 3 1  ON 52
CSFcoeff_54 -5.1584970042e-03 3 1  ON 53
CSFcoeff_55 -6.0469064444e-03 3 1  ON 54
CSFcoeff_56 -5.5943779693e-03 3 1  ON 55
CSFcoeff_57 -1.0952955901e-02 3 1  ON 56
CSFcoeff_58 -7.2443753561e-03 3 1  ON 57
CSFcoeff_59 4.8561565271e-03 3 1  ON 58
CSFcoeff_60 1.6011632821e-02 3 1  ON 59
CSFcoeff_61 -7.2757329335e-03 3 1  ON 60
CSFcoeff_62 -2.4862796189e-03 3 1  ON 61
CSFcoeff_63 4.0548013274e-03 3 1  ON 62
CSFcoeff_64 -6.2250174619e-03 3 1  ON 63
CSFcoeff_65 -4.4070525752e-03 3 1  ON 64
CSFcoeff_66 7.9822406667e-03 3 1  ON 65
CSFcoeff_67 4.6220990325e-03 3 1  ON 66
CSFcoeff_68 -6.5770014049e-03 3 1  ON 67
CSFcoeff_69 9.5410024174e-03 3 1  ON 68
CSFcoeff_70 -5.8712207011e-03 3 1  ON 69
CSFcoeff_71 -4.4694283027e-03 3 1  ON 70
CSFcoeff_72 2.0137627808e-03 3 1  ON 71
CSFcoeff_73 -7.3237599447e-03 3 1  ON 72
CSFcoeff_74 -8.4196989597e-03 3 1  ON 73
CSFcoeff_75 -4.8163060507e-03 3 1  ON 74
CSFcoeff_76 -7.0975996135e-03 3 1  ON 75
CSFcoeff_77 -5.1136914933e-03 3 1  ON 76
CSFcoeff_78 -7.0075217427e-03 3 1  ON 77
CSFcoeff_79 -5.4596630884e-03 3 1  ON 78
CSFcoeff_80 1.5493307055e-03 3 1  ON 79
CSFcoeff_81 2.7691509559e-03 3 1  ON 80
CSFcoeff_82 -1.0076982754e-03 3 1  ON 81
CSFcoeff_83 -5.8736475451e-03 3 1  ON 82
CSFcoeff_84 -6.1564097717e-03 3 1  ON 83
CSFcoeff_85 -4.4734267180e-03 3 1  ON 84
CSFcoeff_86 -6.0866348981e-03 3 1  ON 85
CSFcoeff_87 5.0181849608e-03 3 1  ON 86
CSFcoeff_88 -5.3269620432e-03 3 1  ON 87
CSFcoeff_89 4.5251095281e-03 3 1  ON 88
CSFcoeff_90 -5.7212459744e-03 3 1  ON 89
CSFcoeff_91 -5.6195482179e-03 3 1  ON 90
CSFcoeff_92 4.4992512260e-03 3 1  ON 91
CSFcoeff_93 2.0893448178e-03 3 1  ON 92
CSFcoeff_94 -6.3871067835e-03 3 1  ON 93
CSFcoeff_95 6.4363769945e-03 3 1  ON 94
CSFcoeff_96 -7.4479841776e-03 3 1  ON 95
CSFcoeff_97 -2.7292386961e-03 3 1  ON 96
CSFcoeff_98 6.4284188150e-03 3 1  ON 97
CSFcoeff_99 -5.0922319743e-03 3 1  ON 98
CSFcoeff_100 2.0242586057e-02 3 1  ON 99
CSFcoeff_101 2.8752400919e-03 3 1  ON 100
CSFcoeff_102 -6.3138612891e-03 3 1  ON 101
CSFcoeff_103 5.5321385403e-03 3 1  ON 102
CSFcoeff_104 4.1718194948e-03 3 1  ON 103
CSFcoeff_105 3.6925193495e-03 3 1  ON 104
CSFcoeff_106 5.4420144352e-03 3 1  ON 105
CSFcoeff_107 -5.3548537374e-03 3 1  ON 106
CSFcoeff_108 5.4680801131e-03 3 1  ON 107
CSFcoeff_109 -3.5517258467e-03 3 1  ON 108
CSFcoeff_110 1.9269905486e-03 3 1  ON 109
CSFcoeff_111 -3.7717951716e-03 3 1  ON 110
CSFcoeff_112 2.0165205622e-03 3 1  ON 111
CSFcoeff_113 4.4184539969e-03 3 1  ON 112
CSFcoeff_114 6.8589303554e-03 3 1  ON 113
CSFcoeff_115 7.6421952021e-03 3 1  ON 114
CSFcoeff_116 6.1999823728e-03 3 1  ON 115
CSFcoeff_117 -3.8874703245e-03 3 1  ON 116
CSFcoeff_118 -2.6601488937e-03 3 1  ON 117
CSFcoeff_119 8.1665037977e-04 3 1  ON 118
CSFcoeff_120 -3.2067422977e-03 3 1  ON 119
CSFcoeff_121 -1.1718230752e-02 3 1  ON 120
CSFcoeff_122 -4.7732620579e-03 3 1  ON 121
CSFcoeff_123 3.2341857170e-03 3 1  ON 122
CSFcoeff_124 5.1519869199e-03 3 1  ON 123
CSFcoeff_125 -4.3170833139e-03 3 1  ON 124
CSFcoeff_126 -4.1527684723e-03 3 1  ON 125
CSFcoeff_127 2.2954881255e-03 3 1  ON 126
CSFcoeff_128 -6.5452140685e-03 3 1  ON 127
CSFcoeff_129 -6.6450497420e-03 3 1  ON 128
CSFcoeff_130 -3.5753624051e-03 3 1  ON 129
CSFcoeff_131 -4.6398438409e-03 3 1  ON 130
CSFcoeff_132 -7.1834170054e-03 3 1  ON 131
CSFcoeff_133 7.4220585719e-03 3 1  ON 132
CSFcoeff_134 -8.5513509925e-03 3 1  ON 133
CSFcoeff_135 -3.0570333415e-03 3 1  ON 134
CSFcoeff_136 4.6930404690e-03 3 1  ON 135
uu_0 4.8521931094e-01 1 1  ON 136
uu_1 3.2875031283e-01 1 1  ON 137
uu_2 2.2981720831e-01 1 1  ON 138
uu_3 1.6659867387e-01 1 1  ON 139
uu_4 1.1734523537e-01 1 1  ON 140
uu_5 7.9958571732e-02 1 1  ON 141
uu_6 5.3068070186e-02 1 1  ON 142
uu_7 3.5840729414e-02 1 1  ON 143
uu_8 6.1796093294e-03 1 1  ON 144
uu_9 -1.3581080405e-02 1 1  ON 145
ud_0 6.3183636418e-01 1 1  ON 146
ud_1 3.4030205855e-01 1 1  ON 147
ud_2 1.8523113952e-01 1 1  ON 148
ud_3 1.1709579573e-01 1 1  ON 149
ud_4 8.2656027038e-02 1 1  ON 150
ud_5 5.0160594693e-02 1 1  ON 151
ud_6 1.9446422782e-02 1 1  ON 152
ud_7 -1.4732991234e-02 1 1  ON 153
ud_8 -3.9397478315e-02 1 1  ON 154
ud_9 -5.8824055404e-02 1 1  ON 155
eO_0 -4.4194078532e+00 1 1  ON 156
eO_1 -4.0177597887e+00 1 1  ON 157
eO_2 -3.1713504912e+00 1 1  ON 158
eO_3 -2.3500517169e+00 1 1  ON 159
eO_4 -1.6225260833e+00 1 1  ON 160
eO_5 -9.9918364189e-01 1 1  ON 161
eO_6 -8.7739387741e-01 1 1  ON 162
eO_7 -7.2252631519e-01 1 1  ON 163
eO_8 -5.2361198737e-01 1 1  ON 164
eO_9 1.2647647925e-01 1 1  ON 165
eH_0 -2.9804616970e-01 1 1  ON 166
eH_1 -2.5075338717e-01 1 1  ON 167
eH_2 -2.2884261828e-01 1 1  ON 168
eH_3 -1.6148305807e-01 1 1  ON 169
eH_4 -7.3351382064e-02 1 1  ON 170
eH_5 -1.8712228249e-02 1 1  ON 171
eH_6 -4.7025266563e-02 1 1  ON 172
eH_7 -2.9885784712e-02 1 1  ON 173
eH_8 4.1002283282e-02 1 1  ON 174
eH_9 9.9040593399e-02 1 1  ON 175
uuO_0 7.6606600686e-06 1 1  ON 176
uuO_1 4.5151775403e-06 1 1  ON 177
uuO_2 -4.4713333959e-07 1 1  ON 178
uuO_3 -1.0942946481e-05 1 1  ON 179
uuO_4 -2.4989216075e-06 1 1  ON 180
uuO_5 6.2934004501e-06 1 1  ON 181
uuO_6 -5.0706747734e-06 1 1  ON 182
uuO_7 3.6203284607e-06 1 1  ON 183
uuO_8 9.6873869306e-06 1 1  ON 184
uuO_9 -4.0085363422e-06 1 1  ON 185
uuO_10 -6.8360791025e-06 1 1  ON 186
uuO_11 -5.8175655639e-06 1 1  ON 187
uuO_12 -2.8544676438e-06 1 1  ON 188
uuO_13 1.2254603943e-05 1 1  ON 189
uuO_14 2.7908149654e-06 1 1  ON 190
uuO_15 3.1815892898e-08 1 1  ON 191
uuO_16 1.3567287398e-05 1 1  ON 192
uuO_17 8.4843301433e-06 1 1  ON 193
uuO_18 4.1694310282e-06 1 1  ON 194
uuO_19 3.2539113134e-07 1 1  ON 195
uuO_20 -8.2281036684e-06 1 1  ON 196
uuO_21 -9.6544898444e-07 1 1  ON 197
uuO_22 1.2908103757e-07 1 1  ON 198
uuO_23 3.4075851078e-06 1 1  ON 199
uuO_24 -3.9134892148e-08 1 1  ON 200
uuO_25 -2.9160186212e-08 1 1  ON 201
udO_0 1.6824595507e-07 1 1  ON 202
udO_1 1.9023824075e-05 1 1  ON 203
udO_2 2.0300205065e-05 1 1  ON 204
udO_3 -1.1675068052e-05 1 1  ON 205
udO_4 -4.9067156458e-06 1 1  ON 206
udO_5 6.1547356357e-06 1 1  ON 207
udO_6 3.1282878634e-05 1 1  ON 208
udO_7 6.7028757397e-06 1 1  ON 209
udO_8 2.4997660537e-05 1 1  ON 210
udO_9 -2.0670223746e-05 1 1  ON 211
udO_10 -5.9623668505e-06 1 1  ON 212
udO_11 -2.1316765860e-05 1 1  ON 213
udO_12 -6.1110151055e-06 1 1  ON 214
udO_13 5.6815743051e-06 1 1  ON 215
udO_14 4.7512672760e-06 1 1  ON 216
udO_15 1.4888167309e-07 1 1  ON 217
udO_16 2.8186939953e-05 1 1  ON 218
udO_17 -3.9685377188e-06 1 1  ON 219
udO_18 1.3957493334e-05 1 1  ON 220
udO_19 1.3594474550e-06 1 1  ON 221
udO_20 -2.9186288634e-06 1 1  ON 222
udO_21 -2.4596311987e-06 1 1  ON 223
udO_22 7.9505248852e-08 1 1  ON 224
udO_23 6.1074184972e-07 1 1  ON 225
udO_24 3.2571236280e-07 1 1  ON 226
udO_25 -4.4708257595e-08 1 1  ON 227
uuH_0 1.3079030569e-06 1 1  ON 228
uuH_1 6.3878315532e-06 1 1  ON 229
uuH_2 9.5280616985e-07 1 1  ON 230
uuH_3 6.3103193678e-07 1 1  ON 231
uuH_4 4.7948868870e-07 1 1  ON 232
uuH_5 -6.4592910635e-07 1 1  ON 233
uuH_6 8.5863470970e-06 1 1  ON 234
uuH_7 -8.1373912286e-06 1 1  ON 235
uuH_8 -1.9909573798e-06 1 1  ON 236
uuH_9 -5.2643086569e-06 1 1  ON 237
uuH_10 1.6758131069e-06 1 1  ON 238
uuH_11 -1.1444199382e-06 1 1  ON 239
uuH_12 6.8870054946e-07 1 1  ON 240
uuH_13 -2.0554931062e-06 1 1  ON 241
uuH_14 -1.3107496698e-06 1 1  ON 242
uuH_15 8.1080234754e-08 1 1  ON 243
uuH_16 1.5627783740e-05 1 1  ON 244
uuH_17 -1.0588237586e-05 1 1  ON 245
uuH_18 6.1637396979e-06 1 1  ON 246
uuH_19 -7.6256426429e-07 1 1  ON 247
uuH_20 -2.8931421410e-06 1 1  ON 248
uuH_21 -5.1469189735e-07 1 1  ON 249
uuH_22 8.5316993906e-08 1 1  ON 250
uuH_23 9.4200109216e-07 1 1  ON 251
uuH_24 3.0539616332e-08 1 1  ON 252
uuH_25 -1.0584631040e-08 1 1  ON 253
udH_0 -5.1400086161e-06 1 1  ON 254
udH_1 -1.9499428583e-05 1 1  ON 255
udH_2 -1.0804832949e-06 1 1  ON 256
udH_3 5.0698788223e-06 1 1  ON 257
udH_4 1.2565602285e-07 1 1  ON 258
udH_5 1.9585244531e-06 1 1  ON 259
udH_6 -2.3145196069e-05 1 1  ON 260
udH_7 7.2842518819e-06 1 1  ON 261
udH_8 -3.6822888183e-06 1 1  ON 262
udH_9 2.0752922739e-05 1 1  ON 263
udH_10 2.5880572128e-06 1 1  ON 264
udH_11 -5.7263868740e-07 1 1  ON 265
udH_12 8.1456470895e-07 1 1  ON 266
udH_13 -8.0866344107e-06 1 1  ON 267
udH_14 -1.2040209807e-06 1 1  ON 268
udH_15 7.5462264681e-08 1 1  ON 269
udH_16 -1.3032855013e-05 1 1  ON 270
udH_17 -7.9160342157e-06 1 1  ON 271
udH_18 3.1945038421e-06 1 1  ON 272
udH_19 -4.5576651786e-07 1 1  ON 273
udH_20 4.2400005426e-06 1 1  ON 274
udH_21 -3.3832191517e-07 1 1  ON 275
udH_22 3.6855490654e-08 1 1  ON 276
udH_23 -7.2489734038e-07 1 1  ON 277
udH_24 1.0471183965e-07 1 1  ON 278
udH_25 -1.1003404641e-08 1 1  ON 279
  </optVariables>
   Restore the number of walkers to 16, removing 234 walkers.
</opt>
</optimization-report>
  QMC Execution time = 9.8138994319e+01 secs 

=========================================================
  Start VMCSingleOMP
  File Root H2O.s008 append = no 
=========================================================
  Using the current 16 walkers.
  Total number of walkers: 5.1200000000e+02
  Total weight: 5.1200000000e+02
  Resetting Properties of the walkers 1 x 14

<vmc function="put">
  qmc_counter=0  my_counter=0
  time step      = 3.0000000000e-01
  blocks         = 100
  steps          = 1
  substeps       = 20
  current        = 0
  target samples = 0.0000000000e+00
  walkers/mpi    = 16

  stepsbetweensamples = 101
<parameter name="blocks" condition="int">100</parameter>
<parameter name="check_properties" condition="int">100</parameter>
<parameter name="checkproperties" condition="int">100</parameter>
<parameter name="current" condition="int">0</parameter>
<parameter name="dmcwalkersperthread" condition="real">0.0000000000e+00</parameter>
<parameter name="maxcpusecs" condition="real">3.6000000000e+05</parameter>
<parameter name="record_configs" condition="int">0</parameter>
<parameter name="record_walkers" condition="int">101</parameter>
<parameter name="recordconfigs" condition="int">0</parameter>
<parameter name="recordwalkers" condition="int">101</parameter>
<parameter name="rewind" condition="int">0</parameter>
<parameter name="samples" condition="real">0.0000000000e+00</parameter>
<parameter name="samplesperthread" condition="real">0.0000000000e+00</parameter>
<parameter name="steps" condition="int">1</parameter>
<parameter name="stepsbetweensamples" condition="int">101</parameter>
<parameter name="store_configs" condition="int">0</parameter>
<parameter name="storeconfigs" condition="int">0</parameter>
<parameter name="sub_steps" condition="int">20</parameter>
<parameter name="substeps" condition="int">20</parameter>
<parameter name="tau" condition="au">3.0000000000e-01</parameter>
<parameter name="time_step" condition="au">3.0000000000e-01</parameter>
<parameter name="timestep" condition="au">3.0000000000e-01</parameter>
<parameter name="use_drift" condition="string">yes</parameter>
<parameter name="usedrift" condition="string">yes</parameter>
<parameter name="walkers" condition="int">16</parameter>
<parameter name="warmup_steps" condition="int">100</parameter>
<parameter name="warmupsteps" condition="int">100</parameter>
  DumpConfig==false Nothing (configurations, state) will be saved.
  Walker Samples are dumped every 101 steps.
</vmc>

 TraceManager::put() 1
  traces requested          : 0
  method allows traces      : 1
  traces available          : 0

  EstimatorManager::add replace LocalEnergy estimator.
  Cannot make clones again. Use existing 16 clones
  Initial partition of walkers 0 1 2 3 4 5 6 7 8 9 10 11 12 13 14 15 16 
  PbyP moves with drift, using VMCUpdatePbyPWithDriftFast

  Total Sample Size   =0
  Walker distribution on root = 0 1 2 3 4 5 6 7 8 9 10 11 12 13 14 15 16 
  Anonymous Buffer size per walker 5643
MEMORY increase 0 MB VMCSingleOMP::resetRun
====================================================
  SimpleFixedNodeBranch::finalize after a VMC block
    QMC counter        = 8
    time step          = 0.3
    reference energy   = -17.2468
    reference variance = 0.399933
====================================================
  QMC Execution time = 1.4640827127e+01 secs 
Creating DMCMP for the qmc driver

=========================================================
  Start DMCOMP
  File Root H2O.s009 append = no 
=========================================================
Using existing walkers 
  Resetting Properties of the walkers 1 x 14

 TraceManager::put() 1
  traces requested          : 0
  method allows traces      : 1
  traces available          : 0

  EstimatorManager::add replace LocalEnergy estimator.
  DMCOMP::resetUpdateEngines
  Cannot make clones again. Use existing 16 clones
  Total number of walkers: 5.1200000000e+02
  Total weight: 5.1200000000e+02
  Creating WalkerController: target  number of walkers = 960
  Using WalkerControlMPI for dynamic population control.
  START ALL OVER 
  WalkerControlBase parameters 
    maxCopy = 2
   Max Walkers per node 61
   Min Walkers per node 7
  QMC counter      = 9
  time step        = 1.0000000000e-02
  effective time step = 1.0000000000e-02
  trial energy     = -1.7246761771e+01
  reference energy = -1.7246761771e+01
  Feedback = 1.0000000000e+00
  reference variance = 3.9993288970e-01
  target walkers = 960
  branch cutoff = 5.0000000000e+01 7.5000000000e+01
  Max and mimum walkers per node= 61 7
  QMC Status (BranchMode) = 0000001101
  Total number of walkers: 1.0240000000e+03
  Total weight: 1.0240000000e+03
  Initial partition of walkers on a node: 0 2 4 6 8 10 12 14 16 18 20 22 24 26 28 30 32 
  Updates by particle-by-particle moves using fast gradient version 
  DMC moves are rejected when a node crossing is detected
SimpleFixedNodeBranch::checkParameters 
  Average Energy of a population  = -17.2594
  Energy Variance = 0.391088

  Fluctuating population
  Persisent walkers are killed after 1 MC sweeps
  BranchInterval = 1
  Steps per block = 100
  Number of blocks = 100

  DMC Engine Initialization = 5.1588651250e-02 secs 

 Warmup is completed after 100

  TauEff     = 9.8860319928e-03
 TauEff/Tau = 9.8860319928e-01
  Etrial     = -1.7296189720e+01
 Running average of energy = -1.7267267888e+01
                  Variance = 2.1358782995e-01
branch cutoff = 1.0000000000e+01 1.5000000000e+01
====================================================
  SimpleFixedNodeBranch::finalize after a DMC block
    QMC counter                   = 9
    time step                     = 0.01
    effective time step           = 0.00988828
    trial energy                  = -17.2473
    reference energy              = -17.2652
    reference variance            = 0.213588
    target walkers                = 960
    branch cutoff                 = 10 15
    Max and mimum walkers per node= 61 7
    Feedback                      = 1
    QMC Status (BranchMode)       = 0000001111
====================================================
  QMC Execution time = 2.4694014776e+02 secs 
  Total Execution time = 1.1447748174e+03 secs

=========================================================
  A new xml input file : H2O.s009.cont.xml
