
     Program PWSCF v.4.2        starts on 31Oct2014 at 13:24:31 

     This program is part of the open-source Quantum ESPRESSO suite
     for quantum simulation of materials; please acknowledge
         "P. Giannozzi et al., J. Phys.:Condens. Matter 21 395502 (2009);
          URL http://www.quantum-espresso.org", 
     in publications or presentations arising from this work. More details at
     http://www.quantum-espresso.org/wiki/index.php/Citing_Quantum-ESPRESSO

     Parallel version (MPI), running on    16 processors
     R & G space division:  proc/pool =   16

     EXPERIMENTAL VERSION WITH EXACT EXCHANGE

     Current dimensions of program PWSCF are:
     Max number of different atomic species (ntypx) = 10
     Max number of k-points (npk) =  40000
     Max angular momentum in pseudopotentials (lmaxx) =  3
     Waiting for input...

     XC functional enforced from input :
     Exchange-correlation      = LDA (1100)
     EXX-fraction              =        0.00
     !!! Any further DFT definition will be discarded
     !!! Please, verify this is what you really want !

     file C.BFD.upf: wavefunction(s)  0s 0p renormalized

     Subspace diagonalization in iterative solution of the eigenvalue problem:
     Too few electrons for parallel  algorithm: we need # of bands >= SQRT(nproc)
     a serial algorithm will be used


     Planes per process (thick) : nr3 =  45 npp =    3 ncplane =  2025
 
     Proc/  planes cols     G    planes cols    G      columns  G
     Pool       (dense grid)       (smooth grid)      (wavefct grid)
        1     3     79     1836    3     79     1836     21      267
        2     3     79     1836    3     79     1836     21      267
        3     3     79     1837    3     79     1837     21      267
        4     3     79     1837    3     79     1837     22      268
        5     3     78     1834    3     78     1834     22      267
        6     3     78     1834    3     78     1834     22      267
        7     3     78     1834    3     78     1834     22      267
        8     3     79     1835    3     79     1835     22      267
        9     3     79     1835    3     79     1835     22      267
       10     3     79     1835    3     79     1835     22      267
       11     3     79     1835    3     79     1835     22      269
       12     3     79     1835    3     79     1835     22      269
       13     3     79     1835    3     79     1835     22      269
       14     2     79     1835    2     79     1835     22      269
       15     2     79     1835    2     79     1835     22      269
       16     2     79     1835    2     79     1835     22      269
     tot     45   1261    29363   45   1261    29363    349     4285
 


     bravais-lattice index     =            0
     lattice parameter (a_0)   =       1.0000  a.u.
     unit-cell volume          =      76.7611 (a.u.)^3
     number of atoms/cell      =            2
     number of atomic types    =            1
     number of electrons       =         8.00
     number of Kohn-Sham states=            8
     kinetic-energy cutoff     =     200.0000  Ry
     charge density cutoff     =     800.0000  Ry
     convergence threshold     =      1.0E-08
     mixing beta               =       0.7000
     number of iterations used =            8  plain     mixing
     Exchange-correlation      = LDA (1100)
     EXX-fraction              =        0.00

     celldm(1)=   1.000000  celldm(2)=   0.000000  celldm(3)=   0.000000
     celldm(4)=   0.000000  celldm(5)=   0.000000  celldm(6)=   0.000000

     crystal axes: (cart. coord. in units of a_0)
               a(1) = (  3.373161  3.373161  0.000000 )  
               a(2) = (  0.000000  3.373161  3.373161 )  
               a(3) = (  3.373161  0.000000  3.373161 )  

     reciprocal axes: (cart. coord. in units 2 pi/a_0)
               b(1) = (  0.148229  0.148229 -0.148229 )  
               b(2) = ( -0.148229  0.148229  0.148229 )  
               b(3) = (  0.148229 -0.148229  0.148229 )  


     PseudoPot. # 1 for C  read from file C.BFD.upf
     Pseudo is Norm-conserving, Zval =  4.0
     Generated by new atomic code, or converted to UPF format
     Using radial grid of 2000 points,  1 beta functions with: 
                l(1) =   0

     atomic species   valence    mass     pseudopotential
        C              4.00    12.01100     C ( 1.00)

     No symmetry found
                                    s                        frac. trans.

      isym =  1     identity                                     

 cryst.   s( 1) = (     1          0          0      )    f =(  0.0000000 )
                  (     0          1          0      )       (  0.0000000 )
                  (     0          0          1      )       (  0.0000000 )

 cart.    s( 1) = (  1.0000000  0.0000000  0.0000000 )    f =(  0.0000000 )
                  (  0.0000000  1.0000000  0.0000000 )       (  0.0000000 )
                  (  0.0000000  0.0000000  1.0000000 )       (  0.0000000 )


     point group C_1 (1)    
     there are  1 classes
     the character table:

       E    
A      1.00

     the symmetry operations in each class:
     E        1

   Cartesian axes

     site n.     atom                  positions (a_0 units)
         1           C   tau(  1) = (   0.0000000   0.0000000   0.0000000  )
         2           C   tau(  2) = (   1.6865806   1.6865806   1.6865806  )

   Crystallographic axes

     site n.     atom                  positions (cryst. coord.)
         1           C   tau(  1) = (  0.0000000  0.0000000  0.0000000  )
         2           C   tau(  2) = (  0.2500000  0.2500000  0.2500000  )

     number of k points=     2  gaussian broad. (Ry)=  0.0001     ngauss = -99
                       cart. coord. in units 2pi/a_0
        k(    1) = (   0.0000000   0.0000000   0.0000000), wk =   1.0000000
        k(    2) = (   0.0741145   0.0741145  -0.0741145), wk =   1.0000000

                       cryst. coord.
        k(    1) = (   0.0000000   0.0000000   0.0000000), wk =   1.0000000
        k(    2) = (   0.5000000   0.0000000   0.0000000), wk =   1.0000000

     G cutoff =   20.2642  (  29363 G-vectors)     FFT grid: ( 45, 45, 45)

     Largest allocated arrays     est. size (Mb)     dimensions
        Kohn-Sham Wavefunctions         0.03 Mb     (    238,   8)
        NL pseudopotentials             0.01 Mb     (    238,   2)
        Each V/rho on FFT grid          0.09 Mb     (   6075)
        Each G-vector array             0.01 Mb     (   1836)
        G-vector shells                 0.00 Mb     (    296)
     Largest temporary arrays     est. size (Mb)     dimensions
        Auxiliary wavefunctions         0.12 Mb     (    238,  32)
        Each subspace H/S matrix        0.02 Mb     (     32,  32)
        Each <psi_i|beta_j> matrix      0.00 Mb     (      2,   8)
        Arrays for rho mixing           0.74 Mb     (   6075,   8)

     Initial potential from superposition of free atoms

     starting charge    0.63662, renormalised to    8.00000
     Starting wfc are    8 atomic wfcs

     total cpu time spent up to now is      0.08 secs

     per-process dynamical memory:     2.0 Mb

     Self-consistent Calculation

     iteration #  1     ecut=   200.00 Ry     beta=0.70
     Davidson diagonalization with overlap
     ethr =  1.00E-02,  avg # of iterations =  2.5

     total cpu time spent up to now is      0.11 secs

     total energy              =     -21.55128242 Ry
     Harris-Foulkes estimate   =     -21.72881759 Ry
     estimated scf accuracy    <       0.33444117 Ry

     iteration #  2     ecut=   200.00 Ry     beta=0.70
     Davidson diagonalization with overlap
     ethr =  4.18E-03,  avg # of iterations =  2.0

     total cpu time spent up to now is      0.13 secs

     total energy              =     -21.57225714 Ry
     Harris-Foulkes estimate   =     -21.57535962 Ry
     estimated scf accuracy    <       0.00811239 Ry

     iteration #  3     ecut=   200.00 Ry     beta=0.70
     Davidson diagonalization with overlap
     ethr =  1.01E-04,  avg # of iterations =  2.0

     total cpu time spent up to now is      0.16 secs

     total energy              =     -21.57306503 Ry
     Harris-Foulkes estimate   =     -21.57311710 Ry
     estimated scf accuracy    <       0.00021937 Ry

     iteration #  4     ecut=   200.00 Ry     beta=0.70
     Davidson diagonalization with overlap
     ethr =  2.74E-06,  avg # of iterations =  2.0

     total cpu time spent up to now is      0.18 secs

     total energy              =     -21.57307861 Ry
     Harris-Foulkes estimate   =     -21.57307898 Ry
     estimated scf accuracy    <       0.00000096 Ry

     iteration #  5     ecut=   200.00 Ry     beta=0.70
     Davidson diagonalization with overlap
     ethr =  1.20E-08,  avg # of iterations =  2.0

     total cpu time spent up to now is      0.21 secs

     total energy              =     -21.57307891 Ry
     Harris-Foulkes estimate   =     -21.57307887 Ry
     estimated scf accuracy    <       0.00000006 Ry

     iteration #  6     ecut=   200.00 Ry     beta=0.70
     Davidson diagonalization with overlap
     ethr =  8.05E-10,  avg # of iterations =  1.5

     total cpu time spent up to now is      0.22 secs

     End of self-consistent calculation

          k = 0.0000 0.0000 0.0000 (  3695 PWs)   bands (ev):

    -7.5565  14.2648  14.3602  14.3602  19.5263  19.5814  19.5814  26.9197

     occupation numbers 
     1.0000   1.0000   1.0000   1.0000   0.0000   0.0000   0.0000   0.0000

          k = 0.0741 0.0741-0.0741 (  3648 PWs)   bands (ev):

    -1.5521   0.3201  11.4478  11.4478  22.3033  22.3033  22.4842  29.0359

     occupation numbers 
     1.0000   1.0000   1.0000   1.0000   0.0000   0.0000   0.0000   0.0000

     the Fermi energy is    15.3145 ev

!    total energy              =     -21.57307892 Ry
     Harris-Foulkes estimate   =     -21.57307892 Ry
     estimated scf accuracy    <          5.1E-10 Ry

     The total energy is the sum of the following terms:

     one-electron contribution =       8.77406625 Ry
     hartree contribution      =       2.44729481 Ry
     xc contribution           =      -7.24310552 Ry
     ewald contribution        =     -25.55133445 Ry
     - averaged Fock potential =       0.00000000 Ry
     + Fock energy             =       0.00000000 Ry
     smearing contrib. (-TS)   =       0.00000000 Ry

     convergence has been achieved in   6 iterations

     Writing output data file pwscf.save

     Writing output data file pwscf.save
 
     init_run     :      0.05s CPU      0.05s WALL (       1 calls)
     electrons    :      0.14s CPU      0.15s WALL (       1 calls)

     Called by init_run:
     wfcinit      :      0.01s CPU      0.01s WALL (       1 calls)
     potinit      :      0.01s CPU      0.01s WALL (       1 calls)

     Called by electrons:
     c_bands      :      0.08s CPU      0.08s WALL (       6 calls)
     sum_band     :      0.02s CPU      0.02s WALL (       6 calls)
     v_of_rho     :      0.00s CPU      0.01s WALL (       7 calls)
     v_h          :      0.00s CPU      0.00s WALL (       7 calls)
     v_xc         :      0.00s CPU      0.00s WALL (       7 calls)
     mix_rho      :      0.00s CPU      0.00s WALL (       6 calls)

     Called by c_bands:
     init_us_2    :      0.00s CPU      0.00s WALL (      26 calls)
     cegterg      :      0.08s CPU      0.08s WALL (      12 calls)

     Called by sum_band:

     Called by *egterg:
     h_psi        :      0.07s CPU      0.08s WALL (      38 calls)
     g_psi        :      0.00s CPU      0.00s WALL (      24 calls)
     cdiaghg      :      0.01s CPU      0.01s WALL (      36 calls)
     cegterg:over :      0.00s CPU      0.00s WALL (      24 calls)
     cegterg:upda :      0.00s CPU      0.00s WALL (      24 calls)
     cegterg:last :      0.00s CPU      0.00s WALL (      12 calls)

     Called by h_psi:
     h_psi:vloc   :      0.07s CPU      0.08s WALL (      38 calls)
     h_psi:vnl    :      0.00s CPU      0.00s WALL (      38 calls)
     add_vuspsi   :      0.00s CPU      0.00s WALL (      38 calls)

     General routines
     calbec       :      0.00s CPU      0.00s WALL (      38 calls)
     cft3s        :      0.08s CPU      0.09s WALL (     615 calls)
 
     Parallel routines
     fft_scatter  :      0.03s CPU      0.02s WALL (     615 calls)
     EXX routines
 
     PWSCF        :     0.30s CPU time,        0.34s WALL time

 
   This run was terminated on:  13:24:31  31Oct2014            

=------------------------------------------------------------------------------=
   JOB DONE.
=------------------------------------------------------------------------------=
