
     Program PWSCF v.4.2        starts on 31Oct2014 at 13:24:10 

     This program is part of the open-source Quantum ESPRESSO suite
     for quantum simulation of materials; please acknowledge
         "P. Giannozzi et al., J. Phys.:Condens. Matter 21 395502 (2009);
          URL http://www.quantum-espresso.org", 
     in publications or presentations arising from this work. More details at
     http://www.quantum-espresso.org/wiki/index.php/Citing_Quantum-ESPRESSO

     Parallel version (MPI), running on    16 processors
     R & G space division:  proc/pool =   16

     EXPERIMENTAL VERSION WITH EXACT EXCHANGE

     Current dimensions of program PWSCF are:
     Max number of different atomic species (ntypx) = 10
     Max number of k-points (npk) =  40000
     Max angular momentum in pseudopotentials (lmaxx) =  3
     Waiting for input...

     XC functional enforced from input :
     Exchange-correlation      = LDA (1100)
     EXX-fraction              =        0.00
     !!! Any further DFT definition will be discarded
     !!! Please, verify this is what you really want !

     file C.BFD.upf: wavefunction(s)  0s 0p renormalized

     Subspace diagonalization in iterative solution of the eigenvalue problem:
     Too few electrons for parallel  algorithm: we need # of bands >= SQRT(nproc)
     a serial algorithm will be used


     Planes per process (thick) : nr3 =  45 npp =    3 ncplane =  2025
 
     Proc/  planes cols     G    planes cols    G      columns  G
     Pool       (dense grid)       (smooth grid)      (wavefct grid)
        1     3     79     1836    3     79     1836     19      230
        2     3     79     1836    3     79     1836     19      230
        3     3     79     1837    3     79     1837     19      230
        4     3     79     1837    3     79     1837     19      230
        5     3     78     1834    3     78     1834     19      230
        6     3     78     1834    3     78     1834     19      230
        7     3     78     1834    3     78     1834     19      230
        8     3     79     1835    3     79     1835     20      231
        9     3     79     1835    3     79     1835     20      231
       10     3     79     1835    3     79     1835     20      231
       11     3     79     1835    3     79     1835     20      232
       12     3     79     1835    3     79     1835     20      232
       13     3     79     1835    3     79     1835     20      232
       14     2     79     1835    2     79     1835     20      232
       15     2     79     1835    2     79     1835     20      232
       16     2     79     1835    2     79     1835     20      232
     tot     45   1261    29363   45   1261    29363    313     3695
 


     bravais-lattice index     =            0
     lattice parameter (a_0)   =       1.0000  a.u.
     unit-cell volume          =      76.7611 (a.u.)^3
     number of atoms/cell      =            2
     number of atomic types    =            1
     number of electrons       =         8.00
     number of Kohn-Sham states=            8
     kinetic-energy cutoff     =     200.0000  Ry
     charge density cutoff     =     800.0000  Ry
     convergence threshold     =      1.0E-08
     mixing beta               =       0.7000
     number of iterations used =            8  plain     mixing
     Exchange-correlation      = LDA (1100)
     EXX-fraction              =        0.00

     celldm(1)=   1.000000  celldm(2)=   0.000000  celldm(3)=   0.000000
     celldm(4)=   0.000000  celldm(5)=   0.000000  celldm(6)=   0.000000

     crystal axes: (cart. coord. in units of a_0)
               a(1) = (  3.373161  3.373161  0.000000 )  
               a(2) = (  0.000000  3.373161  3.373161 )  
               a(3) = (  3.373161  0.000000  3.373161 )  

     reciprocal axes: (cart. coord. in units 2 pi/a_0)
               b(1) = (  0.148229  0.148229 -0.148229 )  
               b(2) = ( -0.148229  0.148229  0.148229 )  
               b(3) = (  0.148229 -0.148229  0.148229 )  


     PseudoPot. # 1 for C  read from file C.BFD.upf
     Pseudo is Norm-conserving, Zval =  4.0
     Generated by new atomic code, or converted to UPF format
     Using radial grid of 2000 points,  1 beta functions with: 
                l(1) =   0

     atomic species   valence    mass     pseudopotential
        C              4.00    12.01100     C ( 1.00)

     No symmetry found
                                    s                        frac. trans.

      isym =  1     identity                                     

 cryst.   s( 1) = (     1          0          0      )    f =(  0.0000000 )
                  (     0          1          0      )       (  0.0000000 )
                  (     0          0          1      )       (  0.0000000 )

 cart.    s( 1) = (  1.0000000  0.0000000  0.0000000 )    f =(  0.0000000 )
                  (  0.0000000  1.0000000  0.0000000 )       (  0.0000000 )
                  (  0.0000000  0.0000000  1.0000000 )       (  0.0000000 )


     point group C_1 (1)    
     there are  1 classes
     the character table:

       E    
A      1.00

     the symmetry operations in each class:
     E        1

   Cartesian axes

     site n.     atom                  positions (a_0 units)
         1           C   tau(  1) = (   0.0000000   0.0000000   0.0000000  )
         2           C   tau(  2) = (   1.6865806   1.6865806   1.6865806  )

   Crystallographic axes

     site n.     atom                  positions (cryst. coord.)
         1           C   tau(  1) = (  0.0000000  0.0000000  0.0000000  )
         2           C   tau(  2) = (  0.2500000  0.2500000  0.2500000  )

     number of k points=     1  gaussian broad. (Ry)=  0.0001     ngauss = -99
                       cart. coord. in units 2pi/a_0
        k(    1) = (   0.0000000   0.0000000   0.0000000), wk =   2.0000000

                       cryst. coord.
        k(    1) = (   0.0000000   0.0000000   0.0000000), wk =   2.0000000

     G cutoff =   20.2642  (  29363 G-vectors)     FFT grid: ( 45, 45, 45)

     Largest allocated arrays     est. size (Mb)     dimensions
        Kohn-Sham Wavefunctions         0.03 Mb     (    230,   8)
        NL pseudopotentials             0.01 Mb     (    230,   2)
        Each V/rho on FFT grid          0.09 Mb     (   6075)
        Each G-vector array             0.01 Mb     (   1836)
        G-vector shells                 0.00 Mb     (    290)
     Largest temporary arrays     est. size (Mb)     dimensions
        Auxiliary wavefunctions         0.11 Mb     (    230,  32)
        Each subspace H/S matrix        0.02 Mb     (     32,  32)
        Each <psi_i|beta_j> matrix      0.00 Mb     (      2,   8)
        Arrays for rho mixing           0.74 Mb     (   6075,   8)

     Initial potential from superposition of free atoms

     starting charge    0.63662, renormalised to    8.00000
     Starting wfc are    8 atomic wfcs

     total cpu time spent up to now is      0.07 secs

     per-process dynamical memory:     2.1 Mb

     Self-consistent Calculation

     iteration #  1     ecut=   200.00 Ry     beta=0.70
     Davidson diagonalization with overlap
     ethr =  1.00E-02,  avg # of iterations =  2.0

     total cpu time spent up to now is      0.09 secs

     total energy              =     -20.51566793 Ry
     Harris-Foulkes estimate   =     -20.80356929 Ry
     estimated scf accuracy    <       0.52980377 Ry

     iteration #  2     ecut=   200.00 Ry     beta=0.70
     Davidson diagonalization with overlap
     ethr =  6.62E-03,  avg # of iterations =  2.0

     total cpu time spent up to now is      0.11 secs

     total energy              =     -20.54321774 Ry
     Harris-Foulkes estimate   =     -20.54972303 Ry
     estimated scf accuracy    <       0.01465483 Ry

     iteration #  3     ecut=   200.00 Ry     beta=0.70
     Davidson diagonalization with overlap
     ethr =  1.83E-04,  avg # of iterations =  2.0

     total cpu time spent up to now is      0.13 secs

     total energy              =     -20.54484912 Ry
     Harris-Foulkes estimate   =     -20.54494464 Ry
     estimated scf accuracy    <       0.00040863 Ry

     iteration #  4     ecut=   200.00 Ry     beta=0.70
     Davidson diagonalization with overlap
     ethr =  5.11E-06,  avg # of iterations =  1.0

     total cpu time spent up to now is      0.14 secs

     total energy              =     -20.54485151 Ry
     Harris-Foulkes estimate   =     -20.54486827 Ry
     estimated scf accuracy    <       0.00005171 Ry

     iteration #  5     ecut=   200.00 Ry     beta=0.70
     Davidson diagonalization with overlap
     ethr =  6.46E-07,  avg # of iterations =  1.0

     total cpu time spent up to now is      0.16 secs

     total energy              =     -20.54485321 Ry
     Harris-Foulkes estimate   =     -20.54485327 Ry
     estimated scf accuracy    <       0.00000012 Ry

     iteration #  6     ecut=   200.00 Ry     beta=0.70
     Davidson diagonalization with overlap
     ethr =  1.55E-09,  avg # of iterations =  2.0

     total cpu time spent up to now is      0.18 secs

     total energy              =     -20.54485326 Ry
     Harris-Foulkes estimate   =     -20.54485327 Ry
     estimated scf accuracy    <       0.00000003 Ry

     iteration #  7     ecut=   200.00 Ry     beta=0.70
     Davidson diagonalization with overlap
     ethr =  4.27E-10,  avg # of iterations =  1.0

     total cpu time spent up to now is      0.18 secs

     End of self-consistent calculation

          k = 0.0000 0.0000 0.0000 (  3695 PWs)   bands (ev):

    -7.1570  15.1168  15.1168  15.1168  20.1158  20.1158  20.1158  27.6647

     occupation numbers 
     2.0000   2.0000   2.0000   2.0000   0.0000   0.0000   0.0000   0.0000

     the Fermi energy is    18.9606 ev

!    total energy              =     -20.54485327 Ry
     Harris-Foulkes estimate   =     -20.54485327 Ry
     estimated scf accuracy    <          3.1E-09 Ry

     The total energy is the sum of the following terms:

     one-electron contribution =       9.51372877 Ry
     hartree contribution      =       2.88493944 Ry
     xc contribution           =      -7.39218702 Ry
     ewald contribution        =     -25.55133445 Ry
     - averaged Fock potential =       0.00000000 Ry
     + Fock energy             =       0.00000000 Ry
     smearing contrib. (-TS)   =       0.00000000 Ry

     convergence has been achieved in   7 iterations

     Writing output data file pwscf.save

     Writing output data file pwscf.save
 
     init_run     :      0.05s CPU      0.05s WALL (       1 calls)
     electrons    :      0.10s CPU      0.11s WALL (       1 calls)

     Called by init_run:
     wfcinit      :      0.00s CPU      0.00s WALL (       1 calls)
     potinit      :      0.01s CPU      0.01s WALL (       1 calls)

     Called by electrons:
     c_bands      :      0.04s CPU      0.05s WALL (       7 calls)
     sum_band     :      0.01s CPU      0.01s WALL (       7 calls)
     v_of_rho     :      0.00s CPU      0.01s WALL (       8 calls)
     v_h          :      0.00s CPU      0.00s WALL (       8 calls)
     v_xc         :      0.00s CPU      0.00s WALL (       8 calls)
     mix_rho      :      0.00s CPU      0.00s WALL (       7 calls)

     Called by c_bands:
     init_us_2    :      0.00s CPU      0.00s WALL (      15 calls)
     cegterg      :      0.04s CPU      0.04s WALL (       7 calls)

     Called by sum_band:

     Called by *egterg:
     h_psi        :      0.03s CPU      0.04s WALL (      19 calls)
     g_psi        :      0.00s CPU      0.00s WALL (      11 calls)
     cdiaghg      :      0.01s CPU      0.00s WALL (      18 calls)
     cegterg:over :      0.00s CPU      0.00s WALL (      11 calls)
     cegterg:upda :      0.00s CPU      0.00s WALL (      11 calls)
     cegterg:last :      0.00s CPU      0.00s WALL (       7 calls)

     Called by h_psi:
     h_psi:vloc   :      0.03s CPU      0.04s WALL (      19 calls)
     h_psi:vnl    :      0.00s CPU      0.00s WALL (      19 calls)
     add_vuspsi   :      0.00s CPU      0.00s WALL (      19 calls)

     General routines
     calbec       :      0.00s CPU      0.00s WALL (      19 calls)
     cft3s        :      0.04s CPU      0.06s WALL (     361 calls)
 
     Parallel routines
     fft_scatter  :      0.02s CPU      0.01s WALL (     361 calls)
     EXX routines
 
     PWSCF        :     0.25s CPU time,        0.29s WALL time

 
   This run was terminated on:  13:24:10  31Oct2014            

=------------------------------------------------------------------------------=
   JOB DONE.
=------------------------------------------------------------------------------=
