
     Program PWSCF v.5.0        starts on 27May2016 at 18:53:31 

     This program is part of the open-source Quantum ESPRESSO suite
     for quantum simulation of materials; please cite
         "P. Giannozzi et al., J. Phys.:Condens. Matter 21 395502 (2009);
          URL http://www.quantum-espresso.org", 
     in publications or presentations arising from this work. More details at
     http://www.quantum-espresso.org/quote.php

     Parallel version (MPI), running on   512 processors
     R & G space division:  proc/pool =  512

     Current dimensions of program PWSCF are:
     Max number of different atomic species (ntypx) = 10
     Max number of k-points (npk) =  40000
     Max angular momentum in pseudopotentials (lmaxx) =  3
     Reading input from dft.in

     IMPORTANT: XC functional enforced from input :
     Exchange-correlation      = LDA ( 1 1 0 0 0)
     EXX-fraction              =        0.00
     Any further DFT definition will be discarded
     Please, verify this is what you really want

               file O.BFD.upf: wavefunction(s)  0s 0p renormalized

     Subspace diagonalization in iterative solution of the eigenvalue problem:
     a serial algorithm will be used

 
     Parallelization info
     --------------------
     sticks:   dense  smooth     PW     G-vecs:    dense   smooth      PW
     Min          44      44     11                 5032     5032     625
     Max          45      45     12                 5043     5043     635
     Sum       22733   22733   5689              2578383  2578383  322453
 


     bravais-lattice index     =            0
     lattice parameter (alat)  =       1.0000  a.u.
     unit-cell volume          =    6748.3346 (a.u.)^3
     number of atoms/cell      =            2
     number of atomic types    =            1
     number of electrons       =        12.00 (up:   7.00, down:   5.00)
     number of Kohn-Sham states=           11
     kinetic-energy cutoff     =     200.0000  Ry
     charge density cutoff     =     800.0000  Ry
     convergence threshold     =      1.0E-07
     mixing beta               =       0.7000
     number of iterations used =            8  plain     mixing
     Exchange-correlation      = LDA ( 1 1 0 0 0)
     EXX-fraction              =        0.00

     celldm(1)=   1.000000  celldm(2)=   0.000000  celldm(3)=   0.000000
     celldm(4)=   0.000000  celldm(5)=   0.000000  celldm(6)=   0.000000

     crystal axes: (cart. coord. in units of alat)
               a(1) = (  18.897261   0.000000   0.000000 )  
               a(2) = (   0.000000  18.897261   0.000000 )  
               a(3) = (   0.000000   0.000000  18.897261 )  

     reciprocal axes: (cart. coord. in units 2 pi/alat)
               b(1) = (  0.052918  0.000000  0.000000 )  
               b(2) = (  0.000000  0.052918  0.000000 )  
               b(3) = (  0.000000  0.000000  0.052918 )  


     PseudoPot. # 1 for O  read from file:
     ./O.BFD.upf
     MD5 check sum: e50a3faf6d087c8e93bb07d695ababf7
     Pseudo is Norm-conserving, Zval =  6.0
     Generated by new atomic code, or converted to UPF format
     Using radial grid of 2000 points,  1 beta functions with: 
                l(1) =   0

     atomic species   valence    mass     pseudopotential
        O              6.00    15.99900     O ( 1.00)

     Starting magnetic structure 
     atomic species   magnetization
        O            0.000

     No symmetry found


                                    s                        frac. trans.

      isym =  1     identity                                     

 cryst.   s( 1) = (     1          0          0      )
                  (     0          1          0      )
                  (     0          0          1      )

 cart.    s( 1) = (  1.0000000  0.0000000  0.0000000 )
                  (  0.0000000  1.0000000  0.0000000 )
                  (  0.0000000  0.0000000  1.0000000 )


     point group C_1 (1)    
     there are  1 classes
     the character table:

       E    
A      1.00

     the symmetry operations in each class:
     E        1

   Cartesian axes

     site n.     atom                  positions (alat units)
         1           O   tau(   1) = (   8.2507616   9.4486307   9.4486307  )
         2           O   tau(   2) = (  10.6464997   9.4486307   9.4486307  )

   Crystallographic axes

     site n.     atom                  positions (cryst. coord.)
         1           O   tau(   1) = (  0.4366115  0.5000000  0.5000000  )
         2           O   tau(   2) = (  0.5633885  0.5000000  0.5000000  )

     number of k points=     2  Fermi-Dirac smearing, width (Ry)=  0.0001
                       cart. coord. in units 2pi/alat
        k(    1) = (   0.0000000   0.0000000   0.0000000), wk =   1.0000000
        k(    2) = (   0.0000000   0.0000000   0.0000000), wk =   1.0000000

                       cryst. coord.
        k(    1) = (   0.0000000   0.0000000   0.0000000), wk =   1.0000000
        k(    2) = (   0.0000000   0.0000000   0.0000000), wk =   1.0000000

     Dense  grid:  2578383 G-vectors     FFT dimensions: ( 176, 176, 176)

     Largest allocated arrays     est. size (Mb)     dimensions
        Kohn-Sham Wavefunctions         0.11 Mb     (    635,   11)
        NL pseudopotentials             0.02 Mb     (    635,    2)
        Each V/rho on FFT grid          0.95 Mb     (  30976,   2)
        Each G-vector array             0.04 Mb     (   5034)
        G-vector shells                 0.02 Mb     (   1978)
     Largest temporary arrays     est. size (Mb)     dimensions
        Auxiliary wavefunctions         0.43 Mb     (    635,   44)
        Each subspace H/S matrix        0.03 Mb     (  44,  44)
        Each <psi_i|beta_j> matrix      0.00 Mb     (      2,   11)
        Arrays for rho mixing           3.78 Mb     (  30976,   8)

     Initial potential from superposition of free atoms

     starting charge    0.95494, renormalised to   12.00000

     negative rho (up, down):  0.417E-03 0.417E-03
     Starting wfc are    8 randomized atomic wfcs

     total cpu time spent up to now is       18.6 secs

     per-process dynamical memory:    18.4 Mb

     Self-consistent Calculation

     iteration #  1     ecut=   200.00 Ry     beta=0.70
     Davidson diagonalization with overlap
     ethr =  1.00E-02,  avg # of iterations =  8.0

     Threshold (ethr) on eigenvalues was too large:
     Diagonalizing with lowered threshold

     Davidson diagonalization with overlap
     ethr =  8.30E-04,  avg # of iterations =  1.0

     negative rho (up, down):  0.110E-03 0.120E-03

     total cpu time spent up to now is       28.8 secs

     total energy              =     -63.67356480 Ry
     Harris-Foulkes estimate   =     -63.62975937 Ry
     estimated scf accuracy    <       0.09967845 Ry

     total magnetization       =     2.00 Bohr mag/cell
     absolute magnetization    =     2.00 Bohr mag/cell

     iteration #  2     ecut=   200.00 Ry     beta=0.70
     Davidson diagonalization with overlap
     ethr =  8.31E-04,  avg # of iterations =  2.0

     negative rho (up, down):  0.144E-04 0.179E-04

     total cpu time spent up to now is       36.8 secs

     total energy              =     -63.69060377 Ry
     Harris-Foulkes estimate   =     -63.68259336 Ry
     estimated scf accuracy    <       0.00901453 Ry

     total magnetization       =     2.00 Bohr mag/cell
     absolute magnetization    =     2.02 Bohr mag/cell

     iteration #  3     ecut=   200.00 Ry     beta=0.70
     Davidson diagonalization with overlap
     ethr =  7.51E-05,  avg # of iterations =  3.5

     negative rho (up, down):  0.159E-05 0.226E-05

     total cpu time spent up to now is       45.1 secs

     total energy              =     -63.69201005 Ry
     Harris-Foulkes estimate   =     -63.69142570 Ry
     estimated scf accuracy    <       0.00065696 Ry

     total magnetization       =     2.00 Bohr mag/cell
     absolute magnetization    =     2.03 Bohr mag/cell

     iteration #  4     ecut=   200.00 Ry     beta=0.70
     Davidson diagonalization with overlap
     ethr =  5.47E-06,  avg # of iterations =  4.0

     negative rho (up, down):  0.331E-06 0.527E-06

     total cpu time spent up to now is       53.8 secs

     total energy              =     -63.69215985 Ry
     Harris-Foulkes estimate   =     -63.69214555 Ry
     estimated scf accuracy    <       0.00001331 Ry

     total magnetization       =     2.00 Bohr mag/cell
     absolute magnetization    =     2.04 Bohr mag/cell

     iteration #  5     ecut=   200.00 Ry     beta=0.70
     Davidson diagonalization with overlap
     ethr =  1.11E-07,  avg # of iterations =  1.5

     negative rho (up, down):  0.292E-07 0.586E-07

     total cpu time spent up to now is       61.9 secs

     total energy              =     -63.69216532 Ry
     Harris-Foulkes estimate   =     -63.69216528 Ry
     estimated scf accuracy    <       0.00000305 Ry

     total magnetization       =     2.00 Bohr mag/cell
     absolute magnetization    =     2.04 Bohr mag/cell

     iteration #  6     ecut=   200.00 Ry     beta=0.70
     Davidson diagonalization with overlap
     ethr =  2.54E-08,  avg # of iterations =  1.5

     total cpu time spent up to now is       63.2 secs

     End of self-consistent calculation

 ------ SPIN UP ------------


          k = 0.0000 0.0000 0.0000 (322453 PWs)   bands (ev):

   -31.3932 -20.5261 -13.4567 -13.0406 -13.0406  -7.1588  -7.1588  -0.1986
     0.5965   1.2562   1.2562

     occupation numbers 
     1.0000   1.0000   1.0000   1.0000   1.0000   1.0000   1.0000   0.0000
     0.0000   0.0000   0.0000

 ------ SPIN DOWN ----------


          k = 0.0000 0.0000 0.0000 (322453 PWs)   bands (ev):

   -30.0141 -18.7270 -12.2907 -11.2531 -11.2531  -5.0095  -5.0095  -0.1555
     0.9957   1.3009   1.3009

     occupation numbers 
     1.0000   1.0000   1.0000   1.0000   1.0000   0.0000   0.0000   0.0000
     0.0000   0.0000   0.0000

     the spin up/dw Fermi energies are    -6.8713   -6.8713 ev

!    total energy              =     -63.69216606 Ry
     Harris-Foulkes estimate   =     -63.69216600 Ry
     estimated scf accuracy    <       0.00000004 Ry

     The total energy is the sum of the following terms:

     one-electron contribution =    -121.46542080 Ry
     hartree contribution      =      62.47013097 Ry
     xc contribution           =     -13.26093071 Ry
     ewald contribution        =       8.56405448 Ry
     smearing contrib. (-TS)   =       0.00000000 Ry

     total magnetization       =     2.00 Bohr mag/cell
     absolute magnetization    =     2.04 Bohr mag/cell

     convergence has been achieved in   6 iterations

     Forces acting on atoms (Ry/au):

     atom    1 type  1   force =     0.14154478    0.00000000    0.00000000
     atom    2 type  1   force =    -0.14154478    0.00000000    0.00000000
     The non-local contrib.  to forces
     atom    1 type  1   force =     4.43817866    0.00000001    0.00000001
     atom    2 type  1   force =    -4.43819701    0.00000004   -0.00000002
     The ionic contribution  to forces
     atom    1 type  1   force =   -12.43231117    0.00000000    0.00000000
     atom    2 type  1   force =    12.43231117    0.00000000    0.00000000
     The local contribution  to forces
     atom    1 type  1   force =     8.13567560    0.00000001    0.00000000
     atom    2 type  1   force =    -8.13570750   -0.00000003    0.00000004
     The core correction contribution to forces
     atom    1 type  1   force =     0.00000000    0.00000000    0.00000000
     atom    2 type  1   force =     0.00000000    0.00000000    0.00000000
     The Hubbard contrib.    to forces
     atom    1 type  1   force =     0.00000000    0.00000000    0.00000000
     atom    2 type  1   force =     0.00000000    0.00000000    0.00000000
     The SCF correction term to forces
     atom    1 type  1   force =    -0.00002117    0.00000000    0.00000000
     atom    2 type  1   force =     0.00002570    0.00000000    0.00000000

     Total force =     0.200175     Total SCF correction =     0.000033


     entering subroutine stress ...

          total   stress  (Ry/bohr**3)                   (kbar)     P=   -3.83
  -0.00005848   0.00000000   0.00000000         -8.60      0.00      0.00
   0.00000000  -0.00000978   0.00000000          0.00     -1.44      0.00
   0.00000000   0.00000000  -0.00000978          0.00      0.00     -1.44

     kinetic stress (kbar)    606.33      0.00      0.00
                                0.00    715.50      0.00
                                0.00      0.00    715.50

     local   stress (kbar)  -1883.11      0.00      0.00
                                0.00  -1003.32      0.00
                                0.00      0.00  -1003.32

     nonloc. stress (kbar)    188.38      0.00      0.00
                                0.00    187.01      0.00
                                0.00      0.00    187.01

     hartree stress (kbar)    666.16      0.00      0.00
                                0.00    347.80      0.00
                                0.00      0.00    347.80

     exc-cor stress (kbar)    -89.98      0.00      0.00
                                0.00    -89.98      0.00
                                0.00      0.00    -89.98

     corecor stress (kbar)      0.00      0.00      0.00
                                0.00      0.00      0.00
                                0.00      0.00      0.00

     ewald   stress (kbar)    503.61      0.00      0.00
                                0.00   -158.46      0.00
                                0.00      0.00   -158.46

     hubbard stress (kbar)      0.00      0.00      0.00
                                0.00      0.00      0.00
                                0.00      0.00      0.00

     london  stress (kbar)      0.00      0.00      0.00
                                0.00      0.00      0.00
                                0.00      0.00      0.00

     dft-nl  stress (kbar)      0.00      0.00      0.00
                                0.00      0.00      0.00
                                0.00      0.00      0.00



     Writing output data file pwscf.save
 
     init_run     :     17.51s CPU     17.51s WALL (       1 calls)
     electrons    :     44.64s CPU     44.64s WALL (       1 calls)
     forces       :      0.86s CPU      0.86s WALL (       1 calls)
     stress       :      0.53s CPU      0.53s WALL (       1 calls)

     Called by init_run:
     wfcinit      :      0.49s CPU      0.49s WALL (       1 calls)
     potinit      :      0.70s CPU      0.70s WALL (       1 calls)

     Called by electrons:
     c_bands      :      8.18s CPU      8.18s WALL (       7 calls)
     sum_band     :      1.84s CPU      1.84s WALL (       7 calls)
     v_of_rho     :      0.58s CPU      0.58s WALL (       7 calls)
     v_h          :      0.09s CPU      0.09s WALL (       7 calls)
     v_xc         :      0.49s CPU      0.49s WALL (       7 calls)
     mix_rho      :      0.15s CPU      0.15s WALL (       7 calls)

     Called by c_bands:
     init_us_2    :      0.01s CPU      0.01s WALL (      34 calls)
     cegterg      :      8.10s CPU      8.10s WALL (      14 calls)

     Called by sum_band:

     Called by *egterg:
     h_psi        :      8.21s CPU      8.21s WALL (      59 calls)
     g_psi        :      0.03s CPU      0.03s WALL (      43 calls)
     cdiaghg      :      0.18s CPU      0.18s WALL (      55 calls)
     cegterg:over :      0.05s CPU      0.05s WALL (      43 calls)
     cegterg:upda :      0.04s CPU      0.04s WALL (      43 calls)
     cegterg:last :      0.01s CPU      0.01s WALL (      16 calls)

     Called by h_psi:
     h_psi:vloc   :      8.17s CPU      8.17s WALL (      59 calls)
     h_psi:vnl    :      0.03s CPU      0.03s WALL (      59 calls)
     add_vuspsi   :      0.01s CPU      0.01s WALL (      59 calls)

     General routines
     calbec       :      0.30s CPU      0.30s WALL (      63 calls)
     fft          :      0.85s CPU      0.85s WALL (      56 calls)
     fftw         :      9.28s CPU      9.28s WALL (    1030 calls)
 
     Parallel routines
     fft_scatter  :      1.84s CPU      1.84s WALL (    1086 calls)
     EXX routines
 
     PWSCF        :  1m28.86s CPU     1m28.86s WALL

 
   This run was terminated on:  18:55: 0  27May2016            

=------------------------------------------------------------------------------=
   JOB DONE.
=------------------------------------------------------------------------------=
