
     Program PWSCF v.5.0        starts on 27May2016 at 18:50:47 

     This program is part of the open-source Quantum ESPRESSO suite
     for quantum simulation of materials; please cite
         "P. Giannozzi et al., J. Phys.:Condens. Matter 21 395502 (2009);
          URL http://www.quantum-espresso.org", 
     in publications or presentations arising from this work. More details at
     http://www.quantum-espresso.org/quote.php

     Parallel version (MPI), running on   512 processors
     R & G space division:  proc/pool =  512

     Current dimensions of program PWSCF are:
     Max number of different atomic species (ntypx) = 10
     Max number of k-points (npk) =  40000
     Max angular momentum in pseudopotentials (lmaxx) =  3
     Reading input from dft.in

     IMPORTANT: XC functional enforced from input :
     Exchange-correlation      = LDA ( 1 1 0 0 0)
     EXX-fraction              =        0.00
     Any further DFT definition will be discarded
     Please, verify this is what you really want

               file O.BFD.upf: wavefunction(s)  0s 0p renormalized

     Subspace diagonalization in iterative solution of the eigenvalue problem:
     a serial algorithm will be used

 
     Parallelization info
     --------------------
     sticks:   dense  smooth     PW     G-vecs:    dense   smooth      PW
     Min          44      44     11                 5032     5032     625
     Max          45      45     12                 5043     5043     635
     Sum       22733   22733   5689              2578383  2578383  322453
 


     bravais-lattice index     =            0
     lattice parameter (alat)  =       1.0000  a.u.
     unit-cell volume          =    6748.3346 (a.u.)^3
     number of atoms/cell      =            2
     number of atomic types    =            1
     number of electrons       =        12.00 (up:   7.00, down:   5.00)
     number of Kohn-Sham states=           11
     kinetic-energy cutoff     =     200.0000  Ry
     charge density cutoff     =     800.0000  Ry
     convergence threshold     =      1.0E-07
     mixing beta               =       0.7000
     number of iterations used =            8  plain     mixing
     Exchange-correlation      = LDA ( 1 1 0 0 0)
     EXX-fraction              =        0.00

     celldm(1)=   1.000000  celldm(2)=   0.000000  celldm(3)=   0.000000
     celldm(4)=   0.000000  celldm(5)=   0.000000  celldm(6)=   0.000000

     crystal axes: (cart. coord. in units of alat)
               a(1) = (  18.897261   0.000000   0.000000 )  
               a(2) = (   0.000000  18.897261   0.000000 )  
               a(3) = (   0.000000   0.000000  18.897261 )  

     reciprocal axes: (cart. coord. in units 2 pi/alat)
               b(1) = (  0.052918  0.000000  0.000000 )  
               b(2) = (  0.000000  0.052918  0.000000 )  
               b(3) = (  0.000000  0.000000  0.052918 )  


     PseudoPot. # 1 for O  read from file:
     ./O.BFD.upf
     MD5 check sum: e50a3faf6d087c8e93bb07d695ababf7
     Pseudo is Norm-conserving, Zval =  6.0
     Generated by new atomic code, or converted to UPF format
     Using radial grid of 2000 points,  1 beta functions with: 
                l(1) =   0

     atomic species   valence    mass     pseudopotential
        O              6.00    15.99900     O ( 1.00)

     Starting magnetic structure 
     atomic species   magnetization
        O            0.000

     No symmetry found


                                    s                        frac. trans.

      isym =  1     identity                                     

 cryst.   s( 1) = (     1          0          0      )
                  (     0          1          0      )
                  (     0          0          1      )

 cart.    s( 1) = (  1.0000000  0.0000000  0.0000000 )
                  (  0.0000000  1.0000000  0.0000000 )
                  (  0.0000000  0.0000000  1.0000000 )


     point group C_1 (1)    
     there are  1 classes
     the character table:

       E    
A      1.00

     the symmetry operations in each class:
     E        1

   Cartesian axes

     site n.     atom                  positions (alat units)
         1           O   tau(   1) = (   8.3648444   9.4486307   9.4486307  )
         2           O   tau(   2) = (  10.5324169   9.4486307   9.4486307  )

   Crystallographic axes

     site n.     atom                  positions (cryst. coord.)
         1           O   tau(   1) = (  0.4426485  0.5000000  0.5000000  )
         2           O   tau(   2) = (  0.5573515  0.5000000  0.5000000  )

     number of k points=     2  Fermi-Dirac smearing, width (Ry)=  0.0001
                       cart. coord. in units 2pi/alat
        k(    1) = (   0.0000000   0.0000000   0.0000000), wk =   1.0000000
        k(    2) = (   0.0000000   0.0000000   0.0000000), wk =   1.0000000

                       cryst. coord.
        k(    1) = (   0.0000000   0.0000000   0.0000000), wk =   1.0000000
        k(    2) = (   0.0000000   0.0000000   0.0000000), wk =   1.0000000

     Dense  grid:  2578383 G-vectors     FFT dimensions: ( 176, 176, 176)

     Largest allocated arrays     est. size (Mb)     dimensions
        Kohn-Sham Wavefunctions         0.11 Mb     (    635,   11)
        NL pseudopotentials             0.02 Mb     (    635,    2)
        Each V/rho on FFT grid          0.95 Mb     (  30976,   2)
        Each G-vector array             0.04 Mb     (   5034)
        G-vector shells                 0.02 Mb     (   1978)
     Largest temporary arrays     est. size (Mb)     dimensions
        Auxiliary wavefunctions         0.43 Mb     (    635,   44)
        Each subspace H/S matrix        0.03 Mb     (  44,  44)
        Each <psi_i|beta_j> matrix      0.00 Mb     (      2,   11)
        Arrays for rho mixing           3.78 Mb     (  30976,   8)

     Initial potential from superposition of free atoms

     starting charge    0.95494, renormalised to   12.00000

     negative rho (up, down):  0.420E-03 0.420E-03
     Starting wfc are    8 randomized atomic wfcs

     total cpu time spent up to now is       19.6 secs

     per-process dynamical memory:    18.4 Mb

     Self-consistent Calculation

     iteration #  1     ecut=   200.00 Ry     beta=0.70
     Davidson diagonalization with overlap
     ethr =  1.00E-02,  avg # of iterations =  8.0

     Threshold (ethr) on eigenvalues was too large:
     Diagonalizing with lowered threshold

     Davidson diagonalization with overlap
     ethr =  9.50E-04,  avg # of iterations =  1.0

     negative rho (up, down):  0.111E-03 0.122E-03

     total cpu time spent up to now is       29.8 secs

     total energy              =     -63.66644067 Ry
     Harris-Foulkes estimate   =     -63.63085329 Ry
     estimated scf accuracy    <       0.11453412 Ry

     total magnetization       =     2.00 Bohr mag/cell
     absolute magnetization    =     2.00 Bohr mag/cell

     iteration #  2     ecut=   200.00 Ry     beta=0.70
     Davidson diagonalization with overlap
     ethr =  9.54E-04,  avg # of iterations =  1.5

     negative rho (up, down):  0.193E-04 0.254E-04

     total cpu time spent up to now is       37.9 secs

     total energy              =     -63.68526517 Ry
     Harris-Foulkes estimate   =     -63.67842034 Ry
     estimated scf accuracy    <       0.00922793 Ry

     total magnetization       =     2.00 Bohr mag/cell
     absolute magnetization    =     2.02 Bohr mag/cell

     iteration #  3     ecut=   200.00 Ry     beta=0.70
     Davidson diagonalization with overlap
     ethr =  7.69E-05,  avg # of iterations =  3.5

     negative rho (up, down):  0.878E-07 0.253E-06

     total cpu time spent up to now is       46.3 secs

     total energy              =     -63.68736575 Ry
     Harris-Foulkes estimate   =     -63.68700704 Ry
     estimated scf accuracy    <       0.00160429 Ry

     total magnetization       =     2.00 Bohr mag/cell
     absolute magnetization    =     2.03 Bohr mag/cell

     iteration #  4     ecut=   200.00 Ry     beta=0.70
     Davidson diagonalization with overlap
     ethr =  1.34E-05,  avg # of iterations =  2.5

     negative rho (up, down):  0.594E-06 0.108E-05

     total cpu time spent up to now is       54.4 secs

     total energy              =     -63.68767410 Ry
     Harris-Foulkes estimate   =     -63.68766060 Ry
     estimated scf accuracy    <       0.00007194 Ry

     total magnetization       =     2.00 Bohr mag/cell
     absolute magnetization    =     2.03 Bohr mag/cell

     iteration #  5     ecut=   200.00 Ry     beta=0.70
     Davidson diagonalization with overlap
     ethr =  5.99E-07,  avg # of iterations =  3.0

     negative rho (up, down):  0.174E-07 0.496E-07

     total cpu time spent up to now is       62.7 secs

     total energy              =     -63.68769246 Ry
     Harris-Foulkes estimate   =     -63.68769002 Ry
     estimated scf accuracy    <       0.00000171 Ry

     total magnetization       =     2.00 Bohr mag/cell
     absolute magnetization    =     2.03 Bohr mag/cell

     iteration #  6     ecut=   200.00 Ry     beta=0.70
     Davidson diagonalization with overlap
     ethr =  1.42E-08,  avg # of iterations =  2.0

     total cpu time spent up to now is       70.9 secs

     total energy              =     -63.68769313 Ry
     Harris-Foulkes estimate   =     -63.68769310 Ry
     estimated scf accuracy    <       0.00000011 Ry

     total magnetization       =     2.00 Bohr mag/cell
     absolute magnetization    =     2.03 Bohr mag/cell

     iteration #  7     ecut=   200.00 Ry     beta=0.70
     Davidson diagonalization with overlap
     ethr =  8.96E-10,  avg # of iterations =  2.5

     total cpu time spent up to now is       72.4 secs

     End of self-consistent calculation

 ------ SPIN UP ------------


          k = 0.0000 0.0000 0.0000 (322453 PWs)   bands (ev):

   -33.9435 -19.5790 -14.1448 -14.1448 -13.7633  -6.1528  -6.1528  -0.1932
     1.1250   1.2301   1.2301

     occupation numbers 
     1.0000   1.0000   1.0000   1.0000   1.0000   1.0000   1.0000   0.0000
     0.0000   0.0000   0.0000

 ------ SPIN DOWN ----------


          k = 0.0000 0.0000 0.0000 (322453 PWs)   bands (ev):

   -32.6291 -17.7976 -12.5416 -12.3654 -12.3654  -4.0099  -4.0099  -0.1447
     1.2089   1.2788   1.2788

     occupation numbers 
     1.0000   1.0000   1.0000   1.0000   1.0000   0.0000   0.0000   0.0000
     0.0000   0.0000   0.0000

     the spin up/dw Fermi energies are    -3.1220   -7.5254 ev

!    total energy              =     -63.68769316 Ry
     Harris-Foulkes estimate   =     -63.68769316 Ry
     estimated scf accuracy    <          2.2E-09 Ry

     The total energy is the sum of the following terms:

     one-electron contribution =    -127.12509390 Ry
     hartree contribution      =      65.21399935 Ry
     xc contribution           =     -13.47988588 Ry
     ewald contribution        =      11.70328727 Ry
     smearing contrib. (-TS)   =       0.00000000 Ry

     total magnetization       =     2.00 Bohr mag/cell
     absolute magnetization    =     2.03 Bohr mag/cell

     convergence has been achieved in   7 iterations

     Forces acting on atoms (Ry/au):

     atom    1 type  1   force =    -0.23353255    0.00000000    0.00000000
     atom    2 type  1   force =     0.23353255    0.00000000    0.00000000
     The non-local contrib.  to forces
     atom    1 type  1   force =     4.60013528    0.00000000    0.00000001
     atom    2 type  1   force =    -4.60013129    0.00000000    0.00000001
     The ionic contribution  to forces
     atom    1 type  1   force =   -15.22379075    0.00000000    0.00000000
     atom    2 type  1   force =    15.22379075    0.00000000    0.00000000
     The local contribution  to forces
     atom    1 type  1   force =    10.39012709    0.00000001    0.00000000
     atom    2 type  1   force =   -10.39009966    0.00000001    0.00000000
     The core correction contribution to forces
     atom    1 type  1   force =     0.00000000    0.00000000    0.00000000
     atom    2 type  1   force =     0.00000000    0.00000000    0.00000000
     The Hubbard contrib.    to forces
     atom    1 type  1   force =     0.00000000    0.00000000    0.00000000
     atom    2 type  1   force =     0.00000000    0.00000000    0.00000000
     The SCF correction term to forces
     atom    1 type  1   force =     0.00001024    0.00000000    0.00000000
     atom    2 type  1   force =    -0.00001282    0.00000000    0.00000000

     Total force =     0.330265     Total SCF correction =     0.000016


     entering subroutine stress ...

          total   stress  (Ry/bohr**3)                   (kbar)     P=    2.22
   0.00006542   0.00000000   0.00000000          9.62      0.00      0.00
   0.00000000  -0.00001004   0.00000000          0.00     -1.48      0.00
   0.00000000   0.00000000  -0.00001004          0.00      0.00     -1.48

     kinetic stress (kbar)    629.29      0.00      0.00
                                0.00    730.52      0.00
                                0.00      0.00    730.52

     local   stress (kbar)  -1968.92      0.00      0.00
                                0.00  -1033.90      0.00
                                0.00      0.00  -1033.90

     nonloc. stress (kbar)    185.42      0.00      0.00
                                0.00    182.74      0.00
                                0.00      0.00    182.74

     hartree stress (kbar)    683.77      0.00      0.00
                                0.00    368.91      0.00
                                0.00      0.00    368.91

     exc-cor stress (kbar)    -91.51      0.00      0.00
                                0.00    -91.51      0.00
                                0.00      0.00    -91.51

     corecor stress (kbar)      0.00      0.00      0.00
                                0.00      0.00      0.00
                                0.00      0.00      0.00

     ewald   stress (kbar)    571.57      0.00      0.00
                                0.00   -158.23      0.00
                                0.00      0.00   -158.23

     hubbard stress (kbar)      0.00      0.00      0.00
                                0.00      0.00      0.00
                                0.00      0.00      0.00

     london  stress (kbar)      0.00      0.00      0.00
                                0.00      0.00      0.00
                                0.00      0.00      0.00

     dft-nl  stress (kbar)      0.00      0.00      0.00
                                0.00      0.00      0.00
                                0.00      0.00      0.00



     Writing output data file pwscf.save
 
     init_run     :     18.19s CPU     18.19s WALL (       1 calls)
     electrons    :     52.78s CPU     52.78s WALL (       1 calls)
     forces       :      0.86s CPU      0.86s WALL (       1 calls)
     stress       :      0.53s CPU      0.53s WALL (       1 calls)

     Called by init_run:
     wfcinit      :      0.50s CPU      0.50s WALL (       1 calls)
     potinit      :      0.67s CPU      0.67s WALL (       1 calls)

     Called by electrons:
     c_bands      :      9.32s CPU      9.32s WALL (       8 calls)
     sum_band     :      2.10s CPU      2.10s WALL (       8 calls)
     v_of_rho     :      0.63s CPU      0.63s WALL (       8 calls)
     v_h          :      0.10s CPU      0.10s WALL (       8 calls)
     v_xc         :      0.53s CPU      0.53s WALL (       8 calls)
     mix_rho      :      0.19s CPU      0.19s WALL (       8 calls)

     Called by c_bands:
     init_us_2    :      0.01s CPU      0.01s WALL (      38 calls)
     cegterg      :      9.22s CPU      9.22s WALL (      16 calls)

     Called by sum_band:

     Called by *egterg:
     h_psi        :      9.30s CPU      9.30s WALL (      66 calls)
     g_psi        :      0.03s CPU      0.03s WALL (      48 calls)
     cdiaghg      :      0.19s CPU      0.19s WALL (      62 calls)
     cegterg:over :      0.06s CPU      0.06s WALL (      48 calls)
     cegterg:upda :      0.04s CPU      0.04s WALL (      48 calls)
     cegterg:last :      0.02s CPU      0.02s WALL (      18 calls)

     Called by h_psi:
     h_psi:vloc   :      9.26s CPU      9.26s WALL (      66 calls)
     h_psi:vnl    :      0.04s CPU      0.04s WALL (      66 calls)
     add_vuspsi   :      0.01s CPU      0.01s WALL (      66 calls)

     General routines
     calbec       :      0.31s CPU      0.31s WALL (      70 calls)
     fft          :      0.91s CPU      0.91s WALL (      63 calls)
     fftw         :     10.52s CPU     10.52s WALL (    1168 calls)
 
     Parallel routines
     fft_scatter  :      2.03s CPU      2.03s WALL (    1231 calls)
     EXX routines
 
     PWSCF        :  1m36.73s CPU     1m36.73s WALL

 
   This run was terminated on:  18:52:24  27May2016            

=------------------------------------------------------------------------------=
   JOB DONE.
=------------------------------------------------------------------------------=
