----- GAMESS execution script 'rungms' -----
This job is running on host Kylin
under operating system Linux at Wed May 18 22:20:53 CDT 2016
Available scratch disk space (Kbyte units) at beginning of the job is
Filesystem      1K-blocks       Used  Available Use% Mounted on
/dev/dm-0      3778803096 1213052372 2373775508  34% /
GAMESS temporary binary files will be written to /scr/yyang173
GAMESS supplementary output files will be written to /home/yyang173/Desktop/labs/lab3_advanced_molecules/exercises/ex3_multi-slater-jastrow/casscf/gms
Copying input file h2o.cas_rerun.inp to your run's scratch directory...

 Distributed Data Interface kickoff program.
 Initiating 16 compute processes on 1 nodes to run the following command:
 /home/yyang173/Software/gamess/gamess.00.x h2o.cas_rerun 

          ******************************************************
          *         GAMESS VERSION =  1 MAY 2013 (R1)          *
          *             FROM IOWA STATE UNIVERSITY             *
          * M.W.SCHMIDT, K.K.BALDRIDGE, J.A.BOATZ, S.T.ELBERT, *
          *   M.S.GORDON, J.H.JENSEN, S.KOSEKI, N.MATSUNAGA,   *
          *          K.A.NGUYEN, S.J.SU, T.L.WINDUS,           *
          *       TOGETHER WITH M.DUPUIS, J.A.MONTGOMERY       *
          *         J.COMPUT.CHEM.  14, 1347-1363(1993)        *
          **************** 64 BIT INTEL VERSION ****************

  SINCE 1993, STUDENTS AND POSTDOCS WORKING AT IOWA STATE UNIVERSITY
  AND ALSO IN THEIR VARIOUS JOBS AFTER LEAVING ISU HAVE MADE IMPORTANT
  CONTRIBUTIONS TO THE CODE:
     IVANA ADAMOVIC, CHRISTINE AIKENS, YURI ALEXEEV, POOJA ARORA,
     ANDREY ASADCHEV, ROB BELL, PRADIPTA BANDYOPADHYAY, JONATHAN BENTZ,
     BRETT BODE, GALINA CHABAN, WEI CHEN, CHEOL HO CHOI, PAUL DAY,
     ALBERT DEFUSCO, TIM DUDLEY, DMITRI FEDOROV, GRAHAM FLETCHER,
     MARK FREITAG, KURT GLAESEMANN, DAN KEMP, GRANT MERRILL,
     NORIYUKI MINEZAWA, JONATHAN MULLIN, TAKESHI NAGATA,
     SEAN NEDD, HEATHER NETZLOFF, BOSILJKA NJEGIC, RYAN OLSON, MIKE PAK,
     JIM SHOEMAKER, LYUDMILA SLIPCHENKO, SAROM SOK, JIE SONG,
     TETSUYA TAKETSUGU, SIMON WEBB, SOOHAENG YOO, FEDERICO ZAHARIEV

  ADDITIONAL CODE HAS BEEN PROVIDED BY COLLABORATORS IN OTHER GROUPS:
     IOWA STATE UNIVERSITY:
          JOE IVANIC, LAIMUTIS BYTAUTAS, KLAUS RUEDENBERG
     UNIVERSITY OF TOKYO: KIMIHIKO HIRAO, TAKAHITO NAKAJIMA,
          TAKAO TSUNEDA, MUNEAKI KAMIYA, SUSUMU YANAGISAWA,
          KIYOSHI YAGI, MAHITO CHIBA, SEIKEN TOKURA, NAOAKI KAWAKAMI
     UNIVERSITY OF AARHUS: FRANK JENSEN
     UNIVERSITY OF IOWA: VISVALDAS KAIRYS, HUI LI
     NATIONAL INST. OF STANDARDS AND TECHNOLOGY: WALT STEVENS, DAVID GARMER
     UNIVERSITY OF PISA: BENEDETTA MENNUCCI, JACOPO TOMASI
     UNIVERSITY OF MEMPHIS: HENRY KURTZ, PRAKASHAN KORAMBATH
     UNIVERSITY OF ALBERTA: TOBY ZENG, MARIUSZ KLOBUKOWSKI
     UNIVERSITY OF NEW ENGLAND: MARK SPACKMAN
     MIE UNIVERSITY: HIROAKI UMEDA
     MICHIGAN STATE UNIVERSITY:
          KAROL KOWALSKI, MARTA WLOCH, JEFFREY GOUR, JESSE LUTZ,
          WEI LI, PIOTR PIECUCH
     UNIVERSITY OF SILESIA: MONIKA MUSIAL, STANISLAW KUCHARSKI
     FACULTES UNIVERSITAIRES NOTRE-DAME DE LA PAIX:
          OLIVIER QUINET, BENOIT CHAMPAGNE
     UNIVERSITY OF CALIFORNIA - SANTA BARBARA: BERNARD KIRTMAN
     INSTITUTE FOR MOLECULAR SCIENCE:
          KAZUYA ISHIMURA, MICHIO KATOUDA, AND SHIGERU NAGASE
     UNIVERSITY OF NOTRE DAME: DAN CHIPMAN
     KYUSHU UNIVERSITY:
          HARUYUKI NAKANO,
          FENG LONG GU, JACEK KORCHOWIEC, MARCIN MAKOWSKI, AND YURIKO AOKI,
          HIROTOSHI MORI AND EISAKU MIYOSHI
     PENNSYLVANIA STATE UNIVERSITY:
          TZVETELIN IORDANOV, CHET SWALINA, JONATHAN SKONE,
          SHARON HAMMES-SCHIFFER
     WASEDA UNIVERSITY:
          MASATO KOBAYASHI, TOMOKO AKAMA, TSUGUKI TOUMA,
          TAKESHI YOSHIKAWA, YASUHIRO IKABATA, HIROMI NAKAI
     NANJING UNIVERSITY: SHUHUA LI
     UNIVERSITY OF NEBRASKA:
          PEIFENG SU, DEJUN SI, NANDUN THELLAMUREGE, YALI WANG, HUI LI
     UNIVERSITY OF ZURICH:
          ROBERTO PEVERATI, KIM BALDRIDGE
     N. COPERNICUS UNIVERSITY AND JACKSON STATE UNIVERSITY:
          MARIA BARYSZ


 PARALLEL VERSION RUNNING ON    16 PROCESSORS IN     1 NODES.

 EXECUTION OF GAMESS BEGUN Wed May 18 22:20:54 2016

            ECHO OF THE FIRST FEW INPUT CARDS -
 INPUT CARD> $CONTRL SCFTYP=MCSCF RUNTYP=ENERGY MULT=1                                      
 INPUT CARD>   ISPHER=1 EXETYP=RUN COORD=UNIQUE MAXIT=200 ECP=READ $END                     
 INPUT CARD> $SYSTEM MEMORY=150000000 $END                                                  
 INPUT CARD> $SCF DIRSCF=.TRUE. $END                                                        
 INPUT CARD> $GUESS GUESS=MOREAD NORB=57 $END                                               
 INPUT CARD> $DET GROUP=C2v NELS=8 NACT=8 PRTTOL=0.001 $END                                 
 INPUT CARD> $MCSCF MAXIT=200 $END                                                          
 INPUT CARD> $ECP                                                                           
 INPUT CARD>O-QMC GEN 2 1                                                                   
 INPUT CARD> 3                                                                              
 INPUT CARD> 6.00000000 1 9.29793903                                                        
 INPUT CARD> 55.78763416 3 8.86492204                                                       
 INPUT CARD> -38.81978498 2 8.62925665                                                      
 INPUT CARD> 1                                                                              
 INPUT CARD> 38.41914135 2 8.71924452                                                       
 INPUT CARD>H-QMC  GEN 0 0                                                                  
 INPUT CARD>3                                                                               
 INPUT CARD>1.000000000000 1 25.000000000000                                                
 INPUT CARD>25.000000000000 3 10.821821902641                                               
 INPUT CARD>-8.228005709676 2  9.368618758833                                               
 INPUT CARD>H-QMC                                                                           
 INPUT CARD> $END                                                                           
 INPUT CARD> $DATA                                                                          
 INPUT CARD>H2O                                                                             
 INPUT CARD>CNV      2                                                                      
 INPUT CARD>                                                                                
 INPUT CARD>O           8.0      0.0000000000      0.0000000000      0.0000000000           
 INPUT CARD>   S       9                                                                    
 INPUT CARD>     1              0.1253460000  0.05574100                                    
 INPUT CARD>     2              0.2680220000  0.30484800                                    
 INPUT CARD>     3              0.5730980000  0.45375200                                    
 INPUT CARD>     4              1.2254290000  0.29592600                                    
 INPUT CARD>     5              2.6202770000  0.01956700                                    
 INPUT CARD>     6              5.6028180000 -0.12862700                                    
 INPUT CARD>     7             11.9802450000  0.01202400                                    
 INPUT CARD>     8             25.6168010000  0.00040700                                    
 INPUT CARD>     9             54.7752160000 -0.00007600                                    
 INPUT CARD>   S       1                                                                    
 INPUT CARD>     1              1.6866330000  1.00000000                                    
 INPUT CARD>   S       1                                                                    
 INPUT CARD>     1              0.2379970000  1.00000000                                    
 INPUT CARD>   P       9                                                                    
 INPUT CARD>     1              0.0835980000  0.04495800                                    
 INPUT CARD>     2              0.1670170000  0.15017500                                    
 INPUT CARD>     3              0.3336730000  0.25599900                                    
 INPUT CARD>     4              0.6666270000  0.28187900                                    
 INPUT CARD>     5              1.3318160000  0.24283500                                    
 INPUT CARD>     6              2.6607610000  0.16113400                                    
 INPUT CARD>     7              5.3157850000  0.08230800                                    
 INPUT CARD>     8             10.6201080000  0.03989900                                    
  150000000 WORDS OF MEMORY AVAILABLE


     RUN TITLE
     ---------
 H2O                                                                             

 THE POINT GROUP OF THE MOLECULE IS CNV     
 THE ORDER OF THE PRINCIPAL AXIS IS     2
 *** WARNING! ATOM   2 SHELL   10 TYPE S HAS NORMALIZATION   4.42655533

 ATOM      ATOMIC                      COORDINATES (BOHR)
           CHARGE         X                   Y                   Z
 O           8.0     0.0000000000        0.0000000000        0.0000000000
 H           1.0    -0.0000000000       -1.4308249289        1.1078707576
 H           1.0     0.0000000000        1.4308249289        1.1078707576

          INTERNUCLEAR DISTANCES (ANGS.)
          ------------------------------

                1 O          2 H          3 H     

   1 O       0.0000000    0.9575970 *  0.9575970 *
   2 H       0.9575970 *  0.0000000    1.5143200 *
   3 H       0.9575970 *  1.5143200 *  0.0000000  

  * ... LESS THAN  3.000


     ATOMIC BASIS SET
     ----------------
 THE CONTRACTED PRIMITIVE FUNCTIONS HAVE BEEN UNNORMALIZED
 THE CONTRACTED BASIS FUNCTIONS ARE NOW NORMALIZED TO UNITY

  SHELL TYPE  PRIMITIVE        EXPONENT          CONTRACTION COEFFICIENT(S)

 O         

      1   S       1             0.1253460    0.055740958894
      1   S       2             0.2680220    0.304847775189
      1   S       3             0.5730980    0.453751665379
      1   S       4             1.2254290    0.295925781768
      1   S       5             2.6202770    0.019566985570
      1   S       6             5.6028180   -0.128626905144
      1   S       7            11.9802450    0.012023991133
      1   S       8            25.6168010    0.000406999700
      1   S       9            54.7752160   -0.000075999944

      2   S      10             1.6866330    1.000000000000

      3   S      11             0.2379970    1.000000000000

      4   P      12             0.0835980    0.044957980603
      4   P      13             0.1670170    0.150174935208
      4   P      14             0.3336730    0.255998889550
      4   P      15             0.6666270    0.281878878385
      4   P      16             1.3318160    0.242834895230
      4   P      17             2.6607610    0.161133930479
      4   P      18             5.3157850    0.082307964489
      4   P      19            10.6201080    0.039898982786
      4   P      20            21.2173180    0.004678997981

      5   P      21             0.1846960    1.000000000000

      6   P      22             0.6006210    1.000000000000

      7   D      23             0.6693400    1.000000000000

      8   D      24             2.4042780    1.000000000000

      9   F      25             1.4231040    1.000000000000

 H         

     16   S      26             8.7008878    0.062718224627
     16   S      27             1.9555205    0.261958542347
     16   S      28             0.5590436    0.757010458132

     17   S      29             0.1649254    1.000000000000

     18   S      30             0.0320625    1.000000000000

     19   P      31             0.7900744    1.000000000000

     20   P      32             0.1523514    1.000000000000

     21   D      33             0.8838179    1.000000000000

 TOTAL NUMBER OF BASIS SET SHELLS             =   21
 NUMBER OF CARTESIAN GAUSSIAN BASIS FUNCTIONS =   64
 NOTE: THIS RUN WILL RESTRICT THE MO VARIATION SPACE TO SPHERICAL HARMONICS.
 THE NUMBER OF ORBITALS KEPT IN THE VARIATIONAL SPACE WILL BE PRINTED LATER.
 NUMBER OF ELECTRONS                          =   10
 CHARGE OF MOLECULE                           =    0
 SPIN MULTIPLICITY                            =    1
 NUMBER OF OCCUPIED ORBITALS (ALPHA)          =    5
 NUMBER OF OCCUPIED ORBITALS (BETA )          =    5
 TOTAL NUMBER OF ATOMS                        =    3
 THE NUCLEAR REPULSION ENERGY IS        9.1912014082
 NOTE THIS RUN IS USING CORE POTENTIALS, AND THE NUMBER OF ELECTRONS,
 OCCUPIED ORBITALS, AND NUCLEAR REPULSION ENERGY WILL BE ADJUSTED BELOW
 AFTER REMOVAL OF THE CORE CHARGES.

     $CONTRL OPTIONS
     ---------------
 SCFTYP=MCSCF        RUNTYP=ENERGY       EXETYP=RUN     
 MPLEVL=       0     CITYP =NONE         CCTYP =NONE         VBTYP =NONE    
 DFTTYP=NONE         TDDFT =NONE    
 MULT  =       1     ICHARG=       0     NZVAR =       0     COORD =UNIQUE  
 PP    =READ         RELWFN=NONE         LOCAL =NONE         NUMGRD=       F
 ISPHER=       1     NOSYM =       0     MAXIT =     200     UNITS =ANGS    
 PLTORB=       F     MOLPLT=       F     AIMPAC=       F     FRIEND=        
 NPRINT=       7     IREST =       0     GEOM  =INPUT   
 NORMF =       0     NORMP =       0     ITOL  =      20     ICUT  =       9
 INTTYP=BEST         GRDTYP=BEST         QMTTOL= 1.0E-06

     $SYSTEM OPTIONS
     ---------------
  REPLICATED MEMORY=   150000000 WORDS (ON EVERY NODE).
 DISTRIBUTED MEMDDI=           0 MILLION WORDS IN AGGREGATE,
 MEMDDI DISTRIBUTED OVER  16 PROCESSORS IS           0 WORDS/PROCESSOR.
 TOTAL MEMORY REQUESTED ON EACH PROCESSOR=   150000000 WORDS.
 TIMLIM=      525600.00 MINUTES, OR     365.0 DAYS.
 PARALL= T  BALTYP=  DLB     KDIAG=    0  COREFL= F
 MXSEQ2=     300 MXSEQ3=     150

          --------------
          ECP POTENTIALS
          --------------

 PARAMETERS FOR "O-QMC   " ON ATOM    1 WITH ZCORE   2 AND LMAX  1 ARE
 FOR L= 1      COEFF    N           ZETA
    1        6.00000    1        9.29794
    2       55.78763    3        8.86492
    3      -38.81978    2        8.62926
 FOR L= 0      COEFF    N           ZETA
    1       38.41914    2        8.71924

 PARAMETERS FOR "H-QMC   " ON ATOM    2 WITH ZCORE   0 AND LMAX  0 ARE
 FOR L= 0      COEFF    N           ZETA
    1        1.00000    1       25.00000
    2       25.00000    3       10.82182
    3       -8.22801    2        9.36862

 PARAMETERS FOR "H-QMC   " ON ATOM    3 ARE THE SAME AS ATOM   2

 THE ECP RUN REMOVES    2 CORE ELECTRONS, AND THE SAME NUMBER OF PROTONS.
 NUMBER OF ELECTRONS KEPT IN THE CALCULATION IS =    8
 NUMBER OF OCCUPIED ORBITALS (ALPHA) KEPT IS    =    4
 NUMBER OF OCCUPIED ORBITALS (BETA ) KEPT IS    =    4
 THE ADJUSTED NUCLEAR REPULSION ENERGY=        6.9807632466
          ECP ANGULAR INTS.........     0.01 SECONDS

          ----------------
          PROPERTIES INPUT
          ----------------

     MOMENTS            FIELD           POTENTIAL          DENSITY
 IEMOM =       1   IEFLD =       0   IEPOT =       0   IEDEN =       0
 WHERE =COMASS     WHERE =NUCLEI     WHERE =NUCLEI     WHERE =NUCLEI  
 OUTPUT=BOTH       OUTPUT=BOTH       OUTPUT=BOTH       OUTPUT=BOTH    
 IEMINT=       0   IEFINT=       0                     IEDINT=       0
                                                       MORB  =       0

     -------------------------------
     INTEGRAL TRANSFORMATION OPTIONS
     -------------------------------
     NWORD  =            0
     CUTOFF = 1.0E-09     MPTRAN =       0
     DIRTRF =       F     AOINTS =DUP     

          ----------------------
          MCSCF INPUT PARAMETERS
          ----------------------
 CONVERGER SELECTION: FOCAS = F  SOSCF = T  FULLNR = F  QUD = F  JACOBI = F
 SECULAR EQUATION METHOD CISTEP = ALDET   
 --- GENERAL INPUT OPTIONS:
 MAXIT =     200  MICIT =       5  ACURCY= 1.000E-05
 DAMP  =   0.000  CANONC=       T  ENGTOL= 1.000E-10
 EKT   =       F  NPUNCH=       2  NWORD =         0
 REGENERATE CI AFTER CONVERGENCE = NONE    
 DIABATIZATION AFTER CONVERGENCE =        F
 --- INPUT FOR SOSCF CONVERGER:
 FORS  =       T  NOFO  =       1

          ----------------------
          INTEGRAL INPUT OPTIONS
          ----------------------
 NOPK  =       1 NORDER=       0 SCHWRZ=       F

     ------------------------------------------
     THE POINT GROUP IS CNV, NAXIS= 2, ORDER= 4
     ------------------------------------------

 -- VARIATIONAL SPACE WILL BE RESTRICTED TO PURE SPHERICAL HARMONICS ONLY --
 AFTER EXCLUDING CONTAMINANT COMBINATIONS FROM THE CARTESIAN GAUSSIAN BASIS
 SET, THE NUMBER OF SPHERICAL HARMONICS KEPT IN THE VARIATION SPACE IS   57

     DIMENSIONS OF THE SYMMETRY SUBSPACES ARE
 A1  =   22     A2  =    7     B1  =   11     B2  =   17

 ..... DONE SETTING UP THE RUN .....
 CPU     0: STEP CPU TIME=     0.06 TOTAL CPU TIME=        0.1 (    0.0 MIN)
 TOTAL WALL CLOCK TIME=        0.1 SECONDS, CPU UTILIZATION IS  85.71%

          ********************
          1 ELECTRON INTEGRALS
          ********************
 TIME TO DO ORDINARY INTEGRALS=      0.00
 TIME TO DO      ECP INTEGRALS=      0.01
 TIME TO DO   DIPOLE INTEGRALS=      0.00
 ...... END OF ONE-ELECTRON INTEGRALS ......
 CPU     0: STEP CPU TIME=     0.01 TOTAL CPU TIME=        0.1 (    0.0 MIN)
 TOTAL WALL CLOCK TIME=        0.1 SECONDS, CPU UTILIZATION IS  58.33%

          -------------
          GUESS OPTIONS
          -------------
          GUESS =MOREAD            NORB  =      57          NORDER=       0
          MIX   =       F          PRTMO =       F          PUNMO =       F
          TOLZ  = 1.0E-08          TOLE  = 1.0E-05
          SYMDEN=       F          PURIFY=       F

 INITIAL GUESS ORBITALS GENERATED BY MOREAD   ROUTINE.

 STATISTICS FOR GENERATION OF SYMMETRY ORBITAL -Q- MATRIX
 NUMBER OF CARTESIAN ATOMIC ORBITALS=         64
 NUMBER OF SPHERICAL CONTAMINANTS DROPPED=     7
 NUMBER OF LINEARLY DEPENDENT MOS DROPPED=     0
 TOTAL NUMBER OF MOS IN VARIATION SPACE=      57

 SYMMETRIES FOR INITIAL GUESS ORBITALS FOLLOW.   BOTH SET(S).
     4 ORBITALS ARE OCCUPIED (    0 CORE ORBITALS).
     1=A1       2=B2       3=A1       4=B1       5=A1       6=B2       7=A1  
     8=B2       9=A1      10=B2      11=B1      12=A1      13=A2      14=B2  
    15=A1      16=B2      17=B1      18=A1      19=B2      20=A1      21=B2  
    22=A1      23=A2      24=B1      25=A1      26=B2      27=B1      28=A2  
    29=B2      30=A1      31=A1      32=B1      33=A1      34=B2      35=A2  
    36=B1      37=A1      38=A2      39=B2      40=B1      41=B2      42=A1  
    43=A1      44=B2      45=B1      46=A1      47=B2      48=A1      49=B1  
    50=A2      51=B2      52=B1      53=A2      54=A1      55=A1      56=B2  
    57=A1  
 ...... END OF INITIAL ORBITAL SELECTION ......
 CPU     0: STEP CPU TIME=     0.00 TOTAL CPU TIME=        0.1 (    0.0 MIN)
 TOTAL WALL CLOCK TIME=        0.2 SECONDS, CPU UTILIZATION IS  41.18%

                    ----------------------
                    AO INTEGRAL TECHNOLOGY
                    ----------------------
     S,P,L SHELL ROTATED AXIS INTEGRALS, REPROGRAMMED BY
        KAZUYA ISHIMURA (IMS) AND JOSE SIERRA (SYNSTAR).
     S,P,D,L SHELL ROTATED AXIS INTEGRALS PROGRAMMED BY
        KAZUYA ISHIMURA (INSTITUTE FOR MOLECULAR SCIENCE).
     S,P,D,F,G SHELL TO TOTAL QUARTET ANGULAR MOMENTUM SUM 5,
        ERIC PROGRAM BY GRAHAM FLETCHER (ELORET AND NASA ADVANCED
        SUPERCOMPUTING DIVISION, AMES RESEARCH CENTER).
     S,P,D,F,G,L SHELL GENERAL RYS QUADRATURE PROGRAMMED BY
        MICHEL DUPUIS (PACIFIC NORTHWEST NATIONAL LABORATORY).

          --------------------
          2 ELECTRON INTEGRALS
          --------------------

 THE -PK- OPTION IS OFF, THE INTEGRALS ARE NOT IN SUPERMATRIX FORM.
 STORING   15000 INTEGRALS/RECORD ON DISK, USING 12 BYTES/INTEGRAL.
 TWO ELECTRON INTEGRAL EVALUATION REQUIRES   99331 WORDS OF MEMORY.
 II,JST,KST,LST =  1  1  1  1 NREC =         1 INTLOC =    1
 II,JST,KST,LST =  2  1  1  1 NREC =         1 INTLOC =    2
 II,JST,KST,LST =  3  1  1  1 NREC =         1 INTLOC =    7
 II,JST,KST,LST =  4  1  1  1 NREC =         1 INTLOC =   22
 II,JST,KST,LST =  5  1  1  1 NREC =         1 INTLOC =   67
 II,JST,KST,LST =  6  1  1  1 NREC =         1 INTLOC =  214
 II,JST,KST,LST =  7  1  1  1 NREC =         1 INTLOC =  571
 II,JST,KST,LST =  8  1  1  1 NREC =         1 INTLOC = 2257
 II,JST,KST,LST =  9  1  1  1 NREC =         1 INTLOC = 6628
 II,JST,KST,LST = 10  1  1  1 NREC =         2 INTLOC = 9017
 II,JST,KST,LST = 11  1  1  1 NREC =         2 INTLOC = 9017
 II,JST,KST,LST = 12  1  1  1 NREC =         2 INTLOC = 9017
 II,JST,KST,LST = 13  1  1  1 NREC =         2 INTLOC = 9017
 II,JST,KST,LST = 14  1  1  1 NREC =         2 INTLOC = 9017
 II,JST,KST,LST = 15  1  1  1 NREC =         2 INTLOC = 9017
 II,JST,KST,LST = 16  1  1  1 NREC =         2 INTLOC = 9017
 II,JST,KST,LST = 17  1  1  1 NREC =         3 INTLOC = 6001
 II,JST,KST,LST = 18  1  1  1 NREC =         4 INTLOC = 5314
 II,JST,KST,LST = 19  1  1  1 NREC =         5 INTLOC = 7274
 II,JST,KST,LST = 20  1  1  1 NREC =         9 INTLOC =12231
 II,JST,KST,LST = 21  1  1  1 NREC =        16 INTLOC = 1029
 TOTAL NUMBER OF NONZERO TWO-ELECTRON INTEGRALS =              531281
         36 INTEGRAL RECORDS WERE STORED ON DISK FILE  8.
  ...... END OF TWO-ELECTRON INTEGRALS .....
 STEP CPU TIME =     0.13 TOTAL CPU TIME =        0.2 (    0.0 MIN)
 TOTAL WALL CLOCK TIME=        0.3 SECONDS, CPU UTILIZATION IS  62.50%

          -----------------
          MCSCF CALCULATION
          -----------------

 ----- NUCLEAR ENERGY ----- =         6.9807632466

     --------------------------------------------------
          AMES LABORATORY DETERMINANTAL FULL CI
     PROGRAM WRITTEN BY JOE IVANIC AND KLAUS RUEDENBERG
     --------------------------------------------------

 THE POINT GROUP                  =   C2V     
 THE STATE SYMMETRY               =   A1      
 NUMBER OF CORE ORBITALS          =    0
 NUMBER OF ACTIVE ORBITALS        =    8
 NUMBER OF ALPHA ELECTRONS        =    4 (   4 ACTIVE)
 NUMBER OF BETA ELECTRONS         =    4 (   4 ACTIVE)
 NUMBER OF OCCUPIED ORBITALS      =    8
 NUMBER OF CI STATES REQUESTED    =    1
 NUMBER OF CI STARTING VECTORS    =    1
 MAX. NO. OF CI EXPANSION VECTORS =   10
 SIZE OF INITIAL CI GUESS MATRIX  =  300
 MAX. NO. OF CI ITERS/STATE       =  100
 CI DIAGONALIZATION CRITERION     = 1.00E-05
 PURE SPIN STATE AVERAGED 1E- AND 2E- DENSITY MATRIX OPTION=.T.
 STATE=   1 DM2 WEIGHT=   1.00000

 CORRELATION ENERGY ANALYSIS      =    F

 SYMMETRIES FOR THE   0 CORE,   8 ACTIVE ARE

   ACTIVE= A1    B2    A1    B1    A1    B2    A1    B2  
 OPENING FILE DAFL30 WITH      81 LOGICAL RECORDS OF    4096 WORDS
 WITH A MAXIMUM OF         162 PHYSICAL RECORDS OF    2048 WORDS

          ------------------------------
          CASSCF INTEGRAL TRANSFORMATION
          ------------------------------
 AO INTEGRALS WILL BE READ IN FROM DISK...

 NUMBER OF CORE MOLECULAR ORBITALS     =     0
 NUMBER OF OCCUPIED MOLECULAR ORBITALS =     8
 TOTAL NUMBER OF MOLECULAR ORBITALS    =    57
 TOTAL NUMBER OF ATOMIC ORBITALS       =    57
 MEMORY WHICH WOULD BE NEEDED FOR SINGLE PASS TRANSFORMATION =    1210256

 ----- CHOOSING THREE STEPS TRANSFORMATION -----
 NUMBER OF WORDS USED      =     216536
 NUMBER OF WORDS AVAILABLE =  150000000
 NUMBER OF PASSES          =         16
 PASS #   1 COMPLETED IN         0.0 SECONDS.
 PASS #   2 IS ASSIGNED TO A DIFFERENT PROCESSOR.
 PASS #   3 IS ASSIGNED TO A DIFFERENT PROCESSOR.
 PASS #   4 IS ASSIGNED TO A DIFFERENT PROCESSOR.
 PASS #   5 IS ASSIGNED TO A DIFFERENT PROCESSOR.
 PASS #   6 IS ASSIGNED TO A DIFFERENT PROCESSOR.
 PASS #   7 IS ASSIGNED TO A DIFFERENT PROCESSOR.
 PASS #   8 IS ASSIGNED TO A DIFFERENT PROCESSOR.
 PASS #   9 IS ASSIGNED TO A DIFFERENT PROCESSOR.
 PASS #  10 IS ASSIGNED TO A DIFFERENT PROCESSOR.
 PASS #  11 IS ASSIGNED TO A DIFFERENT PROCESSOR.
 PASS #  12 IS ASSIGNED TO A DIFFERENT PROCESSOR.
 PASS #  13 IS ASSIGNED TO A DIFFERENT PROCESSOR.
 PASS #  14 IS ASSIGNED TO A DIFFERENT PROCESSOR.
 PASS #  15 IS ASSIGNED TO A DIFFERENT PROCESSOR.
 PASS #  16 IS ASSIGNED TO A DIFFERENT PROCESSOR.

 ----- NUCLEAR REPULSION ENERGY =      6.98076325
 ----- FROZEN CORE ENERGY       =      0.00000000

 ... SYMMETRY ...           CPU =    0.01
 ... (PQ|RS) -> (PQ|KL) ... CPU =    0.01
 ... (PQ|KL) -> (IJ|KL) ... CPU =    0.00

 NUMBER OF (PQ|KL) INTEGRALS WRITTEN      41509
 NUMBER OF (IJ|KL) INTEGRALS WRITTEN        247
 ..... END OF CAS INTEGRAL TRANSFORMATION .....
 CPU     0: STEP CPU TIME=     0.03 TOTAL CPU TIME=        0.2 (    0.0 MIN)
 TOTAL WALL CLOCK TIME=        0.4 SECONDS, CPU UTILIZATION IS  54.76%

     --------------------------------------------------
          AMES LABORATORY DETERMINANTAL FULL CI
     PROGRAM WRITTEN BY JOE IVANIC AND KLAUS RUEDENBERG
     --------------------------------------------------

 THE NUMBER OF DETERMINANTS HAVING SPACE SYMMETRY A1 
 IN POINT GROUP C2V  WITH SZ=  0.0 IS           1234
 THE DETERMINANT FULL CI REQUIRES          204393 WORDS
 INITIAL CI VECTOR GUESS TIME  :          0.1
 INITIAL FULL CI ITERATION TIME:          0.0

 ITERATION      ENERGY           GRADIENT
     0      -17.0476770732     0.14878432
     1      -17.0515736349     0.01826526
     2      -17.0516287090     0.00634866
     3      -17.0516363831     0.00080487
     4      -17.0516365167     0.00013964
     5      -17.0516365214     0.00003329
     6      -17.0516365217     0.00000707

 CONVERGED STATE    1 ENERGY=      -17.0516365217 IN    6 ITERS

 ALL STATES CONVERGED.

 CI EIGENVECTORS WILL BE LABELED IN GROUP=C2V     
 PRINTING CI COEFFICIENTS LARGER THAN  0.001000

 STATE   1  ENERGY=       -17.0516365217  S=  0.00  SZ=  0.00  SPACE SYM=A1  

  ALPHA   |  BETA    | COEFFICIENT
----------|----------|------------
 11110000 | 11110000 |   0.9843782
 10110100 | 10110100 |  -0.0689313
 11010010 | 11010010 |  -0.0420970
 11011000 | 11011000 |  -0.0405420
 11011000 | 10110100 |   0.0399245
 10110100 | 11011000 |   0.0399245
 01111000 | 01111000 |  -0.0334861
 11011000 | 01111000 |  -0.0316485
 01111000 | 11011000 |  -0.0316485
 10110100 | 01111000 |   0.0300407
 01111000 | 10110100 |   0.0300407
 11010100 | 11010100 |  -0.0295474
 10111000 | 10111000 |  -0.0288488
 11010010 | 10110100 |   0.0266979
 10110100 | 11010010 |   0.0266979
 11110000 | 10010110 |  -0.0225216
 10010110 | 11110000 |  -0.0225216
 11011000 | 11010010 |  -0.0213908
 11010010 | 11011000 |  -0.0213908
 11010100 | 10111000 |   0.0209730
 10111000 | 11010100 |   0.0209730
 11010010 | 01110010 |   0.0209362
 01110010 | 11010010 |   0.0209362
 10110100 | 01110010 |  -0.0200183
 01110010 | 10110100 |  -0.0200183
 10111000 | 01110100 |   0.0200091
 01110100 | 10111000 |   0.0200091
 01110100 | 01110100 |  -0.0191176
 11110000 | 10011100 |   0.0189518
 10011100 | 11110000 |   0.0189518
 10110001 | 10110001 |  -0.0179628
 11010001 | 11010001 |  -0.0160815
 11010100 | 11010001 |   0.0155590
 11010001 | 11010100 |   0.0155590
 10110001 | 01111000 |   0.0152652
 01111000 | 10110001 |   0.0152652
 11110000 | 01011010 |   0.0152520
 01011010 | 11110000 |   0.0152520
 11101000 | 11101000 |  -0.0147148
 01110010 | 01110010 |  -0.0120041
 11011000 | 01110010 |   0.0118163
 01110010 | 11011000 |   0.0118163
 10110010 | 01110100 |  -0.0108610
 01110100 | 10110010 |  -0.0108610
 01110001 | 01110001 |  -0.0108273
 11110000 | 00111001 |  -0.0104903
 00111001 | 11110000 |  -0.0104903
 11100010 | 11100010 |  -0.0104433
 11110000 | 00111100 |  -0.0100318
 00111100 | 11110000 |  -0.0100318
 11010001 | 01110100 |  -0.0094687
 01110100 | 11010001 |  -0.0094687
 10111000 | 10110010 |   0.0093766
 10110010 | 10111000 |   0.0093766
 11110000 | 00110110 |  -0.0091574
 00110110 | 11110000 |  -0.0091574
 10110010 | 10110010 |  -0.0083630
 01111000 | 01110010 |   0.0079687
 01110010 | 01111000 |   0.0079687
 11110000 | 01010101 |   0.0069123
 01010101 | 11110000 |   0.0069123
 10011100 | 10011100 |   0.0067591
 11100100 | 11100100 |  -0.0066311
 11110000 | 10011001 |   0.0058444
 10011001 | 11110000 |   0.0058444
 11101000 | 11100010 |   0.0054323
 11100010 | 11101000 |   0.0054323
 11010100 | 01110100 |   0.0050361
 01110100 | 11010100 |   0.0050361
 10010110 | 10010110 |   0.0049746
 10111000 | 01110001 |   0.0047750
 01110001 | 10111000 |   0.0047750
 00111100 | 00111100 |   0.0045570
 11011000 | 10110001 |   0.0043008
 10110001 | 11011000 |   0.0043008
 01011010 | 01011010 |   0.0042078
 10011100 | 00111100 |  -0.0041959
 00111100 | 10011100 |  -0.0041959
 11010100 | 10110010 |   0.0041766
 10110010 | 11010100 |   0.0041766
 10011100 | 01011010 |   0.0034706
 01011010 | 10011100 |   0.0034706
 11010010 | 01111000 |  -0.0034355
 01111000 | 11010010 |  -0.0034355
 10010110 | 01011010 |  -0.0033226
 01011010 | 10010110 |  -0.0033226
 10011100 | 10010110 |  -0.0032372
 10010110 | 10011100 |  -0.0032372
 10110100 | 10110001 |  -0.0031939
 10110001 | 10110100 |  -0.0031939
 10110100 | 00011110 |  -0.0031720
 00011110 | 10110100 |  -0.0031720
 10110001 | 01110010 |  -0.0026060
 01110010 | 10110001 |  -0.0026060
 10010110 | 00110110 |   0.0025648
 00110110 | 10010110 |   0.0025648
 11010100 | 01110001 |  -0.0025564
 01110001 | 11010100 |  -0.0025564
 11011000 | 00011110 |   0.0024858
 00011110 | 11011000 |   0.0024858
 11100001 | 11100001 |  -0.0024515
 01011010 | 00111100 |  -0.0022947
 00111100 | 01011010 |  -0.0022947
 01011100 | 01011100 |   0.0022089
 10011010 | 10011010 |   0.0021364
 10011100 | 00110110 |  -0.0018920
 00110110 | 10011100 |  -0.0018920
 11110000 | 00110011 |   0.0018912
 00110011 | 11110000 |   0.0018912
 01110100 | 01110001 |  -0.0018884
 01110001 | 01110100 |  -0.0018884
 01111000 | 00011110 |   0.0018376
 00011110 | 01111000 |   0.0018376
 11110000 | 10110100 |   0.0018296
 10110100 | 11110000 |   0.0018296
 01011010 | 00110110 |  -0.0018196
 00110110 | 01011010 |  -0.0018196
 10010101 | 10010101 |   0.0017712
 00111100 | 00110110 |   0.0017260
 00110110 | 00111100 |   0.0017260
 11010010 | 00011110 |   0.0017140
 00011110 | 11010010 |   0.0017140
 00110110 | 00110110 |   0.0017003
 10011010 | 01010110 |  -0.0016086
 01010110 | 10011010 |  -0.0016086
 11110000 | 10110001 |   0.0015679
 10110001 | 11110000 |   0.0015679
 11010001 | 10111000 |  -0.0015435
 10111000 | 11010001 |  -0.0015435
 10010101 | 01011100 |   0.0014643
 01011100 | 10010101 |   0.0014643
 11110000 | 01110010 |  -0.0014225
 01110010 | 11110000 |  -0.0014225
 00111001 | 00111001 |   0.0013676
 11010010 | 10110001 |   0.0013661
 10110001 | 11010010 |   0.0013661
 11110000 | 01111000 |  -0.0013534
 01111000 | 11110000 |  -0.0013534
 10110100 | 10011100 |  -0.0013446
 10011100 | 10110100 |  -0.0013446
 11110000 | 10010011 |   0.0012920
 10010011 | 11110000 |   0.0012920
 10010110 | 00111100 |   0.0012800
 00111100 | 10010110 |   0.0012800
 10011001 | 10011001 |   0.0012756
 11001010 | 11001010 |   0.0012550
 10101100 | 10101100 |   0.0012512
 10110100 | 10010110 |   0.0012322
 10010110 | 10110100 |   0.0012322
 10011001 | 00111100 |  -0.0011282
 00111100 | 10011001 |  -0.0011282
 00110101 | 00110101 |   0.0011148
 11010001 | 01110001 |  -0.0011038
 01110001 | 11010001 |  -0.0011038
 11110000 | 11011000 |  -0.0010826
 11011000 | 11110000 |  -0.0010826
 01110010 | 00011110 |  -0.0010808
 00011110 | 01110010 |  -0.0010808
 01010110 | 01010110 |   0.0010281
 11011000 | 10011100 |   0.0010057
 10011100 | 11011000 |   0.0010057
 ..... DONE WITH DETERMINANT CI COMPUTATION .....
 CPU     0: STEP CPU TIME=     0.06 TOTAL CPU TIME=        0.3 (    0.0 MIN)
 TOTAL WALL CLOCK TIME=        0.7 SECONDS, CPU UTILIZATION IS  40.85%

     --------------------------------------------------
      ONE AND TWO PARTICLE DENSITY MATRIX COMPUTATION
     PROGRAM WRITTEN BY JOE IVANIC AND KLAUS RUEDENBERG
     --------------------------------------------------

      32160 WORDS WILL BE USED TO FORM THE DENSITIES
 THE DENSITIES ARE STATE AVERAGED OVER   1 ROOT(S)
 STATE=   1   ENERGY=      -17.0516365217   WEIGHT= 1.00000   S=  0.00
 SIEVING THE A1   SYMMETRY NONZERO DENSITY ELEMENTS IN GROUP C2V     
        247 NONZERO DM2 ELEMENTS WRITTEN IN       1 RECORDS TO FILE 15
 ..... DONE WITH 1 AND 2 PARTICLE DENSITY MATRIX .....
 CPU     0: STEP CPU TIME=     0.00 TOTAL CPU TIME=        0.3 (    0.0 MIN)
 TOTAL WALL CLOCK TIME=        0.7 SECONDS, CPU UTILIZATION IS  39.19%

          --------------------------------------
          APPROXIMATE SECOND-ORDER MCSCF PROGRAM
          --------------------------------------
          PROGRAM WRITTEN BY G.CHABAN, A.MARQUEZ, AND M.DUPUIS

  NUMBER OF WORDS NEEDED     =     129676
  NUMBER AVAILABLE           =  150000000

 ----- GAMMA(IJKL)*(PQ|KL) PRODUCTS ----- CPU TIME =      0.020
 ----- ORBITAL SYMMETRY             ----- CPU TIME =      0.000
 ----- FOCK OPERATORS CONSTRUCTION  ----- CPU TIME =      0.000
     MICIT =   1 ASYMM =    0.000008 ROTMAX =    0.000018
 ----- EFFECTIVE FOCK + ROTATE ORBS ----- CPU TIME =      0.000
 ..... DONE WITH CASSCF ORBITAL UPDATE .....
 CPU     0: STEP CPU TIME=     0.02 TOTAL CPU TIME=        0.3 (    0.0 MIN)
 TOTAL WALL CLOCK TIME=        0.8 SECONDS, CPU UTILIZATION IS  38.27%

 ITER     TOTAL ENERGY      DEL(E)  LAGRANGIAN ASYMMETRY   SQCDF  MICIT   DAMP
   1      -17.051636522 -0.051636522  0.000008   56    2 1.815E-05  1   0.0000
       ----------START APPROXIMATE SECOND ORDER MCSCF----------
   2      -17.051636522 -0.000000001  0.000004   56    6 1.942E-07  1   0.0000

          --------------------
          LAGRANGIAN CONVERGED
          --------------------

 FINAL MCSCF ENERGY IS      -17.0516365225 AFTER   2 ITERATIONS

 -MCCI- BASED ON OPTIMIZED ORBITALS
 ----------------------------------

 PLEASE NOTE: IF THE ACTIVE ORBITALS ARE CANONICALIZED BELOW,
 THE FOLLOWING CI EXPANSION COEFFICIENTS AND THE DENSITY DO NOT
 CORRESPOND TO THE PRINTED ORBITALS.  THE PRINTED EXPANSIONS MATCH
 THE ORBITALS USED DURING THE LAST ITERATION.  IF YOU WISH TO SEE
 CI EXPANSIONS BASED ON THE CANONICAL (OR NATURAL) ORBITALS, YOU
 MUST RUN A CI CALCULATION WITH THAT ORBITAL CHOICE READ IN $VEC.

 CI EIGENVECTORS WILL BE LABELED IN GROUP=C2V     
 PRINTING CI COEFFICIENTS LARGER THAN  0.001000

 STATE   1  ENERGY=       -17.0516365225  S=  0.00  SZ=  0.00  SPACE SYM=A1  

  ALPHA   |  BETA    | COEFFICIENT
----------|----------|------------
 11110000 | 11110000 |   0.9843782
 10110100 | 10110100 |  -0.0689320
 11010010 | 11010010 |  -0.0420969
 11011000 | 11011000 |  -0.0405425
 11011000 | 10110100 |   0.0399245
 10110100 | 11011000 |   0.0399245
 01111000 | 01111000 |  -0.0334865
 11011000 | 01111000 |  -0.0316484
 01111000 | 11011000 |  -0.0316484
 10110100 | 01111000 |   0.0300403
 01111000 | 10110100 |   0.0300403
 11010100 | 11010100 |  -0.0295472
 10111000 | 10111000 |  -0.0288483
 11010010 | 10110100 |   0.0266982
 10110100 | 11010010 |   0.0266982
 11110000 | 10010110 |  -0.0225217
 10010110 | 11110000 |  -0.0225217
 11011000 | 11010010 |  -0.0213910
 11010010 | 11011000 |  -0.0213910
 11010100 | 10111000 |   0.0209728
 10111000 | 11010100 |   0.0209728
 11010010 | 01110010 |   0.0209360
 01110010 | 11010010 |   0.0209360
 10110100 | 01110010 |  -0.0200183
 01110010 | 10110100 |  -0.0200183
 10111000 | 01110100 |   0.0200088
 01110100 | 10111000 |   0.0200088
 01110100 | 01110100 |  -0.0191174
 11110000 | 10011100 |   0.0189518
 10011100 | 11110000 |   0.0189518
 10110001 | 10110001 |  -0.0179626
 11010001 | 11010001 |  -0.0160811
 11010100 | 11010001 |   0.0155585
 11010001 | 11010100 |   0.0155585
 10110001 | 01111000 |   0.0152653
 01111000 | 10110001 |   0.0152653
 11110000 | 01011010 |   0.0152518
 01011010 | 11110000 |   0.0152518
 11101000 | 11101000 |  -0.0147146
 01110010 | 01110010 |  -0.0120042
 11011000 | 01110010 |   0.0118164
 01110010 | 11011000 |   0.0118164
 10110010 | 01110100 |  -0.0108609
 01110100 | 10110010 |  -0.0108609
 01110001 | 01110001 |  -0.0108273
 11110000 | 00111001 |  -0.0104901
 00111001 | 11110000 |  -0.0104901
 11100010 | 11100010 |  -0.0104432
 11110000 | 00111100 |  -0.0100315
 00111100 | 11110000 |  -0.0100315
 11010001 | 01110100 |  -0.0094688
 01110100 | 11010001 |  -0.0094688
 10111000 | 10110010 |   0.0093765
 10110010 | 10111000 |   0.0093765
 11110000 | 00110110 |  -0.0091574
 00110110 | 11110000 |  -0.0091574
 10110010 | 10110010 |  -0.0083631
 01111000 | 01110010 |   0.0079688
 01110010 | 01111000 |   0.0079688
 11110000 | 01010101 |   0.0069123
 01010101 | 11110000 |   0.0069123
 10011100 | 10011100 |   0.0067591
 11100100 | 11100100 |  -0.0066314
 11110000 | 10011001 |   0.0058440
 10011001 | 11110000 |   0.0058440
 11101000 | 11100010 |   0.0054322
 11100010 | 11101000 |   0.0054322
 11010100 | 01110100 |   0.0050363
 01110100 | 11010100 |   0.0050363
 10010110 | 10010110 |   0.0049746
 10111000 | 01110001 |   0.0047752
 01110001 | 10111000 |   0.0047752
 00111100 | 00111100 |   0.0045570
 11011000 | 10110001 |   0.0043009
 10110001 | 11011000 |   0.0043009
 01011010 | 01011010 |   0.0042078
 10011100 | 00111100 |  -0.0041960
 00111100 | 10011100 |  -0.0041960
 11010100 | 10110010 |   0.0041765
 10110010 | 11010100 |   0.0041765
 10011100 | 01011010 |   0.0034706
 01011010 | 10011100 |   0.0034706
 11010010 | 01111000 |  -0.0034354
 01111000 | 11010010 |  -0.0034354
 10010110 | 01011010 |  -0.0033225
 01011010 | 10010110 |  -0.0033225
 10011100 | 10010110 |  -0.0032372
 10010110 | 10011100 |  -0.0032372
 10110100 | 10110001 |  -0.0031944
 10110001 | 10110100 |  -0.0031944
 10110100 | 00011110 |  -0.0031720
 00011110 | 10110100 |  -0.0031720
 10110001 | 01110010 |  -0.0026059
 01110010 | 10110001 |  -0.0026059
 10010110 | 00110110 |   0.0025648
 00110110 | 10010110 |   0.0025648
 11010100 | 01110001 |  -0.0025566
 01110001 | 11010100 |  -0.0025566
 11011000 | 00011110 |   0.0024858
 00011110 | 11011000 |   0.0024858
 11100001 | 11100001 |  -0.0024516
 01011010 | 00111100 |  -0.0022947
 00111100 | 01011010 |  -0.0022947
 01011100 | 01011100 |   0.0022087
 10011010 | 10011010 |   0.0021363
 10011100 | 00110110 |  -0.0018920
 00110110 | 10011100 |  -0.0018920
 11110000 | 00110011 |   0.0018912
 00110011 | 11110000 |   0.0018912
 01110100 | 01110001 |  -0.0018883
 01110001 | 01110100 |  -0.0018883
 01111000 | 00011110 |   0.0018376
 00011110 | 01111000 |   0.0018376
 11110000 | 10110100 |   0.0018303
 10110100 | 11110000 |   0.0018303
 01011010 | 00110110 |  -0.0018196
 00110110 | 01011010 |  -0.0018196
 10010101 | 10010101 |   0.0017713
 00111100 | 00110110 |   0.0017260
 00110110 | 00111100 |   0.0017260
 11010010 | 00011110 |   0.0017139
 00011110 | 11010010 |   0.0017139
 00110110 | 00110110 |   0.0017003
 10011010 | 01010110 |  -0.0016086
 01010110 | 10011010 |  -0.0016086
 11110000 | 10110001 |   0.0015687
 10110001 | 11110000 |   0.0015687
 11010001 | 10111000 |  -0.0015431
 10111000 | 11010001 |  -0.0015431
 10010101 | 01011100 |   0.0014642
 01011100 | 10010101 |   0.0014642
 11110000 | 01110010 |  -0.0014226
 01110010 | 11110000 |  -0.0014226
 00111001 | 00111001 |   0.0013675
 11010010 | 10110001 |   0.0013657
 10110001 | 11010010 |   0.0013657
 11110000 | 01111000 |  -0.0013532
 01111000 | 11110000 |  -0.0013532
 10110100 | 10011100 |  -0.0013447
 10011100 | 10110100 |  -0.0013447
 11110000 | 10010011 |   0.0012917
 10010011 | 11110000 |   0.0012917
 10010110 | 00111100 |   0.0012800
 00111100 | 10010110 |   0.0012800
 10011001 | 10011001 |   0.0012755
 11001010 | 11001010 |   0.0012550
 10101100 | 10101100 |   0.0012511
 10110100 | 10010110 |   0.0012322
 10010110 | 10110100 |   0.0012322
 10011001 | 00111100 |  -0.0011282
 00111100 | 10011001 |  -0.0011282
 00110101 | 00110101 |   0.0011147
 11010001 | 01110001 |  -0.0011037
 01110001 | 11010001 |  -0.0011037
 11110000 | 11011000 |  -0.0010825
 11011000 | 11110000 |  -0.0010825
 01110010 | 00011110 |  -0.0010807
 00011110 | 01110010 |  -0.0010807
 01010110 | 01010110 |   0.0010280
 11011000 | 10011100 |   0.0010058
 10011100 | 11011000 |   0.0010058

 DENSITY MATRIX OVER ACTIVE MO-S

             1           2           3           4           5

    1    1.9870915
    2    0.0000000   1.9748890
    3   -0.0037801   0.0000000   1.9761483
    4    0.0000000   0.0000000   0.0000000   1.9991034
    5    0.0022252   0.0000000   0.0015070   0.0000000   0.0226813
    6    0.0000000   0.0028149   0.0000000   0.0000000   0.0000000
    7    0.0029099   0.0000000  -0.0001490   0.0000000   0.0029775
    8    0.0000000   0.0028677   0.0000000   0.0000000   0.0000000

             6           7           8

    6    0.0248480
    7    0.0000000   0.0120819
    8    0.0013401   0.0000000   0.0031566

 FORMING THE "STANDARD FOCK OPERATOR" USING INTEGRALS FROM DISK...
     0 FILLED,    8 ACTIVE, AND   49 VIRTUAL ORBITALS  WILL BE CANONICALIZED

          ----------------------
          MCSCF NATURAL ORBITALS
          ----------------------

                      1          2          3          4          5
                    1.9991     1.9883     1.9750     1.9749     0.0249
                     B1         A1         A1         B2         B2  
    1  O  1  S    0.000000   0.909441  -0.038638   0.000000   0.000000
    2  O  1  S    0.000000  -0.005200  -0.007883   0.000000   0.000000
    3  O  1  S    0.000000  -0.074306  -0.110079   0.000000   0.000000
    4  O  1  X    0.935392   0.000000   0.000000   0.000000   0.000000
    5  O  1  Y    0.000000   0.000000   0.000000   0.762218   1.455656
    6  O  1  Z    0.000000  -0.121071   0.831441   0.000000   0.000000
    7  O  1  X    0.008744   0.000000   0.000000   0.000000   0.000000
    8  O  1  Y    0.000000   0.000000   0.000000  -0.122538  -0.610885
    9  O  1  Z    0.000000  -0.039574  -0.028441   0.000000   0.000000
   10  O  1  X    0.007214   0.000000   0.000000   0.000000   0.000000
   11  O  1  Y    0.000000   0.000000   0.000000  -0.042496  -0.384958
   12  O  1  Z    0.000000  -0.016037  -0.024619   0.000000   0.000000
   13  O  1 XX    0.000000   0.004233  -0.014249   0.000000   0.000000
   14  O  1 YY    0.000000   0.001885  -0.001408   0.000000   0.000000
   15  O  1 ZZ    0.000000  -0.006118   0.015657   0.000000   0.000000
   16  O  1 XY    0.000000   0.000000   0.000000   0.000000   0.000000
   17  O  1 XZ    0.016660   0.000000   0.000000   0.000000   0.000000
   18  O  1 YZ    0.000000   0.000000   0.000000   0.017850  -0.069515
   19  O  1 XX    0.000000  -0.002581  -0.006122   0.000000   0.000000
   20  O  1 YY    0.000000   0.002491   0.000965   0.000000   0.000000
   21  O  1 ZZ    0.000000   0.000090   0.005157   0.000000   0.000000
   22  O  1 XY    0.000000   0.000000   0.000000   0.000000   0.000000
   23  O  1 XZ    0.005001   0.000000   0.000000   0.000000   0.000000
   24  O  1 YZ    0.000000   0.000000   0.000000   0.012748  -0.013892
   25  O  1 XXX  -0.003577   0.000000   0.000000   0.000000   0.000000
   26  O  1 YYY   0.000000   0.000000   0.000000   0.001719   0.000498
   27  O  1 ZZZ   0.000000  -0.001292  -0.001410   0.000000   0.000000
   28  O  1 XXY   0.000000   0.000000   0.000000  -0.005025  -0.012962
   29  O  1 XXZ   0.000000  -0.000582  -0.004553   0.000000   0.000000
   30  O  1 YYX   0.003299   0.000000   0.000000   0.000000   0.000000
   31  O  1 YYZ   0.000000   0.002316   0.006445   0.000000   0.000000
   32  O  1 ZZX   0.001500   0.000000   0.000000   0.000000   0.000000
   33  O  1 ZZY   0.000000   0.000000   0.000000   0.002718   0.012294
   34  O  1 XYZ   0.000000   0.000000   0.000000   0.000000   0.000000
   35  H  2  S    0.000000   0.100512   0.195192  -0.257872   0.418862
   36  H  2  S    0.000000   0.024798   0.068723  -0.195305   0.156907
   37  H  2  S    0.000000   0.001125  -0.006422   0.010123   0.040890
   38  H  2  X    0.025246   0.000000   0.000000   0.000000   0.000000
   39  H  2  Y    0.000000   0.019646   0.024977  -0.018948  -0.027684
   40  H  2  Z    0.000000  -0.018060   0.004577   0.026640   0.012952
   41  H  2  X    0.031413   0.000000   0.000000   0.000000   0.000000
   42  H  2  Y    0.000000   0.012160   0.001144  -0.029832  -0.002020
   43  H  2  Z    0.000000  -0.017190   0.026726   0.015063   0.021585
   44  H  2 XX    0.000000  -0.002889  -0.002716   0.004642   0.014654
   45  H  2 YY    0.000000   0.002733   0.005883  -0.001729  -0.015576
   46  H  2 ZZ    0.000000   0.000157  -0.003167  -0.002913   0.000922
   47  H  2 XY    0.005238   0.000000   0.000000   0.000000   0.000000
   48  H  2 XZ   -0.003454   0.000000   0.000000   0.000000   0.000000
   49  H  2 YZ    0.000000  -0.005371  -0.000488   0.007689   0.025397
   50  H  3  S    0.000000   0.100512   0.195192   0.257872  -0.418862
   51  H  3  S    0.000000   0.024798   0.068723   0.195305  -0.156907
   52  H  3  S    0.000000   0.001125  -0.006422  -0.010123  -0.040890
   53  H  3  X    0.025246   0.000000   0.000000   0.000000   0.000000
   54  H  3  Y    0.000000  -0.019646  -0.024977  -0.018948  -0.027684
   55  H  3  Z    0.000000  -0.018060   0.004577  -0.026640  -0.012952
   56  H  3  X    0.031413   0.000000   0.000000   0.000000   0.000000
   57  H  3  Y    0.000000  -0.012160  -0.001144  -0.029832  -0.002020
   58  H  3  Z    0.000000  -0.017190   0.026726  -0.015063  -0.021585
   59  H  3 XX    0.000000  -0.002889  -0.002716  -0.004642  -0.014654
   60  H  3 YY    0.000000   0.002733   0.005883   0.001729   0.015576
   61  H  3 ZZ    0.000000   0.000157  -0.003167   0.002913  -0.000922
   62  H  3 XY   -0.005238   0.000000   0.000000   0.000000   0.000000
   63  H  3 XZ   -0.003454   0.000000   0.000000   0.000000   0.000000
   64  H  3 YZ    0.000000   0.005371   0.000488   0.007689   0.025397

                      6          7          8
                    0.0235     0.0113     0.0031
                     A1         A1         B2  
    1  O  1  S    0.431062  -1.304779   0.000000
    2  O  1  S    0.057343  -0.425930   0.000000
    3  O  1  S   -0.134442   1.434212   0.000000
    4  O  1  X    0.000000   0.000000   0.000000
    5  O  1  Y    0.000000   0.000000  -0.541583
    6  O  1  Z    1.438026   0.646474   0.000000
    7  O  1  X    0.000000   0.000000   0.000000
    8  O  1  Y    0.000000   0.000000   0.438361
    9  O  1  Z   -0.743216  -0.543173   0.000000
   10  O  1  X    0.000000   0.000000   0.000000
   11  O  1  Y    0.000000   0.000000   0.549605
   12  O  1  Z   -0.416751  -0.420416   0.000000
   13  O  1 XX    0.011704   0.045951   0.000000
   14  O  1 YY   -0.022972   0.003074   0.000000
   15  O  1 ZZ    0.011267  -0.049025   0.000000
   16  O  1 XY    0.000000   0.000000   0.000000
   17  O  1 XZ    0.000000   0.000000   0.000000
   18  O  1 YZ    0.000000   0.000000  -0.523171
   19  O  1 XX   -0.008566   0.051680   0.000000
   20  O  1 YY    0.008242   0.003037   0.000000
   21  O  1 ZZ    0.000324  -0.054718   0.000000
   22  O  1 XY    0.000000   0.000000   0.000000
   23  O  1 XZ    0.000000   0.000000   0.000000
   24  O  1 YZ    0.000000   0.000000  -0.382407
   25  O  1 XXX   0.000000   0.000000   0.000000
   26  O  1 YYY   0.000000   0.000000  -0.009695
   27  O  1 ZZZ   0.006188   0.015566   0.000000
   28  O  1 XXY   0.000000   0.000000   0.003579
   29  O  1 XXZ  -0.015617  -0.004897   0.000000
   30  O  1 YYX   0.000000   0.000000   0.000000
   31  O  1 YYZ   0.007315  -0.015987   0.000000
   32  O  1 ZZX   0.000000   0.000000   0.000000
   33  O  1 ZZY   0.000000   0.000000   0.009428
   34  O  1 XYZ   0.000000   0.000000   0.000000
   35  H  2  S   -0.384488   0.236042   0.102743
   36  H  2  S   -0.085881  -0.046877   0.099040
   37  H  2  S    0.002388   0.017057  -0.018024
   38  H  2  X    0.000000   0.000000   0.000000
   39  H  2  Y   -0.013003   0.037713   0.159293
   40  H  2  Z   -0.052626  -0.090395  -0.051325
   41  H  2  X    0.000000   0.000000   0.000000
   42  H  2  Y    0.015045  -0.008224   0.071064
   43  H  2  Z   -0.065033  -0.065732  -0.011482
   44  H  2 XX   -0.009260  -0.010756  -0.043043
   45  H  2 YY   -0.002490  -0.002384   0.054296
   46  H  2 ZZ    0.011750   0.013139  -0.011253
   47  H  2 XY    0.000000   0.000000   0.000000
   48  H  2 XZ    0.000000   0.000000   0.000000
   49  H  2 YZ   -0.032622  -0.026792  -0.059280
   50  H  3  S   -0.384488   0.236042  -0.102743
   51  H  3  S   -0.085881  -0.046877  -0.099040
   52  H  3  S    0.002388   0.017057   0.018024
   53  H  3  X    0.000000   0.000000   0.000000
   54  H  3  Y    0.013003  -0.037713   0.159293
   55  H  3  Z   -0.052626  -0.090395   0.051325
   56  H  3  X    0.000000   0.000000   0.000000
   57  H  3  Y   -0.015045   0.008224   0.071064
   58  H  3  Z   -0.065033  -0.065732   0.011482
   59  H  3 XX   -0.009260  -0.010756   0.043043
   60  H  3 YY   -0.002490  -0.002384  -0.054296
   61  H  3 ZZ    0.011750   0.013139   0.011253
   62  H  3 XY    0.000000   0.000000   0.000000
   63  H  3 XZ    0.000000   0.000000   0.000000
   64  H  3 YZ    0.032622   0.026792  -0.059280

          ------------------------
          MCSCF OPTIMIZED ORBITALS
          ------------------------

                      1          2          3          4          5
                   -1.3487    -0.7152    -0.5804    -0.5145     0.8013
                     A1         B2         A1         B1         A1  
    1  O  1  S    0.857621   0.000000  -0.308103   0.000000   0.747764
    2  O  1  S   -0.006909   0.000000  -0.006135   0.000000   0.163184
    3  O  1  S   -0.105125   0.000000  -0.082511   0.000000  -0.492966
    4  O  1  X    0.000000   0.000000   0.000000   0.935392   0.000000
    5  O  1  Y    0.000000   0.759249   0.000000   0.000000   0.000000
    6  O  1  Z    0.128904   0.000000   0.828935   0.000000   1.228576
    7  O  1  X    0.000000   0.000000   0.000000   0.008744   0.000000
    8  O  1  Y    0.000000  -0.121006   0.000000   0.000000   0.000000
    9  O  1  Z   -0.044529   0.000000  -0.014982   0.000000  -0.581751
   10  O  1  X    0.000000   0.000000   0.000000   0.007214   0.000000
   11  O  1  Y    0.000000  -0.041159   0.000000   0.000000   0.000000
   12  O  1  Z   -0.021542   0.000000  -0.018540   0.000000  -0.296920
   13  O  1 XX   -0.000267   0.000000  -0.014860   0.000000  -0.000309
   14  O  1 YY    0.001411   0.000000  -0.001887   0.000000  -0.023002
   15  O  1 ZZ   -0.001144   0.000000   0.016747   0.000000   0.023311
   16  O  1 XY    0.000000   0.000000   0.000000   0.000000   0.000000
   17  O  1 XZ    0.000000   0.000000   0.000000   0.016660   0.000000
   18  O  1 YZ    0.000000   0.017244   0.000000   0.000000   0.000000
   19  O  1 XX   -0.004331   0.000000  -0.005057   0.000000  -0.021366
   20  O  1 YY    0.002649   0.000000   0.000175   0.000000   0.007209
   21  O  1 ZZ    0.001682   0.000000   0.004882   0.000000   0.014158
   22  O  1 XY    0.000000   0.000000   0.000000   0.000000   0.000000
   23  O  1 XZ    0.000000   0.000000   0.000000   0.005001   0.000000
   24  O  1 YZ    0.000000   0.012249   0.000000   0.000000   0.000000
   25  O  1 XXX   0.000000   0.000000   0.000000  -0.003577   0.000000
   26  O  1 YYY   0.000000   0.001705   0.000000   0.000000   0.000000
   27  O  1 ZZZ  -0.001680   0.000000  -0.000962   0.000000   0.002048
   28  O  1 XXY   0.000000  -0.005000   0.000000   0.000000   0.000000
   29  O  1 XXZ  -0.001882   0.000000  -0.004164   0.000000  -0.013877
   30  O  1 YYX   0.000000   0.000000   0.000000   0.003299   0.000000
   31  O  1 YYZ   0.004136   0.000000   0.005454   0.000000   0.011129
   32  O  1 ZZX   0.000000   0.000000   0.000000   0.001500   0.000000
   33  O  1 ZZY   0.000000   0.002712   0.000000   0.000000   0.000000
   34  O  1 XYZ   0.000000   0.000000   0.000000   0.000000   0.000000
   35  H  2  S    0.154327  -0.258373   0.156796   0.000000  -0.431388
   36  H  2  S    0.044299  -0.195410   0.058285   0.000000  -0.071139
   37  H  2  S   -0.000860   0.010036  -0.006463   0.000000  -0.002009
   38  H  2  X    0.000000   0.000000   0.000000   0.025246   0.000000
   39  H  2  Y    0.026163  -0.018689   0.018021   0.000000  -0.022074
   40  H  2  Z   -0.015701   0.026550   0.009757   0.000000  -0.028065
   41  H  2  X    0.000000   0.000000   0.000000   0.031413   0.000000
   42  H  2  Y    0.011937  -0.029732  -0.002538   0.000000   0.016648
   43  H  2  Z   -0.008290   0.015015   0.030660   0.000000  -0.046281
   44  H  2 XX   -0.003541   0.004560  -0.001730   0.000000  -0.006244
   45  H  2 YY    0.004365  -0.001631   0.004805   0.000000  -0.001798
   46  H  2 ZZ   -0.000825  -0.002930  -0.003075   0.000000   0.008042
   47  H  2 XY    0.000000   0.000000   0.000000   0.005238   0.000000
   48  H  2 XZ    0.000000   0.000000   0.000000  -0.003454   0.000000
   49  H  2 YZ   -0.005194   0.007569   0.001148   0.000000  -0.024791
   50  H  3  S    0.154327   0.258373   0.156796   0.000000  -0.431388
   51  H  3  S    0.044299   0.195410   0.058285   0.000000  -0.071139
   52  H  3  S   -0.000860  -0.010036  -0.006463   0.000000  -0.002009
   53  H  3  X    0.000000   0.000000   0.000000   0.025246   0.000000
   54  H  3  Y   -0.026163  -0.018689  -0.018021   0.000000   0.022074
   55  H  3  Z   -0.015701  -0.026550   0.009757   0.000000  -0.028065
   56  H  3  X    0.000000   0.000000   0.000000   0.031413   0.000000
   57  H  3  Y   -0.011937  -0.029732   0.002538   0.000000  -0.016648
   58  H  3  Z   -0.008290  -0.015015   0.030660   0.000000  -0.046281
   59  H  3 XX   -0.003541  -0.004560  -0.001730   0.000000  -0.006244
   60  H  3 YY    0.004365   0.001631   0.004805   0.000000  -0.001798
   61  H  3 ZZ   -0.000825   0.002930  -0.003075   0.000000   0.008042
   62  H  3 XY    0.000000   0.000000   0.000000  -0.005238   0.000000
   63  H  3 XZ    0.000000   0.000000   0.000000  -0.003454   0.000000
   64  H  3 YZ    0.005194   0.007569  -0.001148   0.000000   0.024791

                      6          7          8          9         10
                    0.8018     1.2454     2.2309     0.0850     0.0982
                     B2         A1         B2         A1         B2  
    1  O  1  S    0.000000  -1.152062   0.000000  -0.020620   0.000000
    2  O  1  S    0.000000  -0.397592   0.000000  -0.006360   0.000000
    3  O  1  S    0.000000   1.353441   0.000000  -0.691083   0.000000
    4  O  1  X    0.000000   0.000000   0.000000   0.000000   0.000000
    5  O  1  Y    1.420964   0.000000   0.630575   0.000000  -0.051924
    6  O  1  Z    0.000000   0.989267   0.000000  -0.031633   0.000000
    7  O  1  X    0.000000   0.000000   0.000000   0.000000   0.000000
    8  O  1  Y   -0.583150   0.000000  -0.475027   0.000000   0.406513
    9  O  1  Z    0.000000  -0.713540   0.000000  -0.344582   0.000000
   10  O  1  X    0.000000   0.000000   0.000000   0.000000   0.000000
   11  O  1  Y   -0.350735   0.000000  -0.572150   0.000000  -0.047564
   12  O  1  Z    0.000000  -0.512177   0.000000  -0.011803   0.000000
   13  O  1 XX    0.000000   0.047418   0.000000   0.017688   0.000000
   14  O  1 YY    0.000000  -0.002833   0.000000  -0.008327   0.000000
   15  O  1 ZZ    0.000000  -0.044585   0.000000  -0.009360   0.000000
   16  O  1 XY    0.000000   0.000000   0.000000   0.000000   0.000000
   17  O  1 XZ    0.000000   0.000000   0.000000   0.000000   0.000000
   18  O  1 YZ   -0.101311   0.000000   0.517975   0.000000  -0.029485
   19  O  1 XX    0.000000   0.047828   0.000000  -0.002657   0.000000
   20  O  1 YY    0.000000   0.005027   0.000000   0.002676   0.000000
   21  O  1 ZZ    0.000000  -0.052855   0.000000  -0.000018   0.000000
   22  O  1 XY    0.000000   0.000000   0.000000   0.000000   0.000000
   23  O  1 XZ    0.000000   0.000000   0.000000   0.000000   0.000000
   24  O  1 YZ   -0.037202   0.000000   0.380863   0.000000  -0.007899
   25  O  1 XXX   0.000000   0.000000   0.000000   0.000000   0.000000
   26  O  1 YYY  -0.000093   0.000000   0.009709   0.000000  -0.000341
   27  O  1 ZZZ   0.000000   0.016623   0.000000   0.001394   0.000000
   28  O  1 XXY  -0.012726   0.000000  -0.004371   0.000000   0.001007
   29  O  1 XXZ   0.000000  -0.008690   0.000000   0.002096   0.000000
   30  O  1 YYX   0.000000   0.000000   0.000000   0.000000   0.000000
   31  O  1 YYZ   0.000000  -0.013612   0.000000  -0.003966   0.000000
   32  O  1 ZZX   0.000000   0.000000   0.000000   0.000000   0.000000
   33  O  1 ZZY   0.012851   0.000000  -0.008655   0.000000  -0.000549
   34  O  1 XYZ   0.000000   0.000000   0.000000   0.000000   0.000000
   35  H  2  S    0.423982   0.131348  -0.077345   0.067349  -0.025430
   36  H  2  S    0.162380  -0.067011  -0.089556   0.770693   0.299898
   37  H  2  S    0.039728   0.017106   0.020502  -0.731707   2.480229
   38  H  2  X    0.000000   0.000000   0.000000   0.000000   0.000000
   39  H  2  Y   -0.017932   0.033236  -0.160714   0.025420  -0.008813
   40  H  2  Z    0.009832  -0.100789   0.052059  -0.016123   0.000888
   41  H  2  X    0.000000   0.000000   0.000000   0.000000   0.000000
   42  H  2  Y    0.002281  -0.004134  -0.071098   0.127913   0.384836
   43  H  2  Z    0.020865  -0.080057   0.012800  -0.110757  -0.084471
   44  H  2 XX    0.012005  -0.012753   0.043865  -0.002232  -0.000032
   45  H  2 YY   -0.012233  -0.002930  -0.055148   0.002021   0.003591
   46  H  2 ZZ    0.000228   0.015683   0.011284   0.000212  -0.003559
   47  H  2 XY    0.000000   0.000000   0.000000   0.000000   0.000000
   48  H  2 XZ    0.000000   0.000000   0.000000   0.000000   0.000000
   49  H  2 YZ    0.021740  -0.034179   0.060732  -0.003924   0.003572
   50  H  3  S   -0.423982   0.131348   0.077345   0.067349   0.025430
   51  H  3  S   -0.162380  -0.067011   0.089556   0.770693  -0.299898
   52  H  3  S   -0.039728   0.017106  -0.020502  -0.731707  -2.480229
   53  H  3  X    0.000000   0.000000   0.000000   0.000000   0.000000
   54  H  3  Y   -0.017932  -0.033236  -0.160714  -0.025420  -0.008813
   55  H  3  Z   -0.009832  -0.100789  -0.052059  -0.016123  -0.000888
   56  H  3  X    0.000000   0.000000   0.000000   0.000000   0.000000
   57  H  3  Y    0.002281   0.004134  -0.071098  -0.127913   0.384836
   58  H  3  Z   -0.020865  -0.080057  -0.012800  -0.110757   0.084471
   59  H  3 XX   -0.012005  -0.012753  -0.043865  -0.002232   0.000032
   60  H  3 YY    0.012233  -0.002930   0.055148   0.002021  -0.003591
   61  H  3 ZZ   -0.000228   0.015683  -0.011284   0.000212   0.003559
   62  H  3 XY    0.000000   0.000000   0.000000   0.000000   0.000000
   63  H  3 XZ    0.000000   0.000000   0.000000   0.000000   0.000000
   64  H  3 YZ    0.021740   0.034179   0.060732   0.003924   0.003572

                     11         12         13         14         15
                    0.3607     0.3891     0.4163     0.4190     0.5342
                     B1         A1         A2         B2         A1  
    1  O  1  S    0.000000  -0.006382   0.000000   0.000000  -0.012395
    2  O  1  S    0.000000   0.005276   0.000000   0.000000   0.000857
    3  O  1  S    0.000000   1.386864   0.000000   0.000000  -1.415697
    4  O  1  X   -0.348322   0.000000   0.000000   0.000000   0.000000
    5  O  1  Y    0.000000   0.000000   0.000000   0.143413   0.000000
    6  O  1  Z    0.000000   0.002633   0.000000   0.000000  -0.194333
    7  O  1  X   -0.858150   0.000000   0.000000   0.000000   0.000000
    8  O  1  Y    0.000000   0.000000   0.000000   2.804780   0.000000
    9  O  1  Z    0.000000   0.837618   0.000000   0.000000   1.511951
   10  O  1  X    0.002672   0.000000   0.000000   0.000000   0.000000
   11  O  1  Y    0.000000   0.000000   0.000000   0.039403   0.000000
   12  O  1  Z    0.000000  -0.014913   0.000000   0.000000  -0.256570
   13  O  1 XX    0.000000  -0.022021   0.000000   0.000000  -0.025369
   14  O  1 YY    0.000000  -0.001000   0.000000   0.000000  -0.030057
   15  O  1 ZZ    0.000000   0.023021   0.000000   0.000000   0.055426
   16  O  1 XY    0.000000   0.000000   0.012678   0.000000   0.000000
   17  O  1 XZ   -0.027891   0.000000   0.000000   0.000000   0.000000
   18  O  1 YZ    0.000000   0.000000   0.000000   0.040506   0.000000
   19  O  1 XX    0.000000  -0.001819   0.000000   0.000000   0.011060
   20  O  1 YY    0.000000   0.011443   0.000000   0.000000   0.001889
   21  O  1 ZZ    0.000000  -0.009625   0.000000   0.000000  -0.012948
   22  O  1 XY    0.000000   0.000000  -0.013524   0.000000   0.000000
   23  O  1 XZ    0.008869   0.000000   0.000000   0.000000   0.000000
   24  O  1 YZ    0.000000   0.000000   0.000000  -0.009290   0.000000
   25  O  1 XXX   0.003522   0.000000   0.000000   0.000000   0.000000
   26  O  1 YYY   0.000000   0.000000   0.000000   0.001254   0.000000
   27  O  1 ZZZ   0.000000  -0.001677   0.000000   0.000000   0.004994
   28  O  1 XXY   0.000000   0.000000   0.000000  -0.004164   0.000000
   29  O  1 XXZ   0.000000  -0.002473   0.000000   0.000000  -0.002562
   30  O  1 YYX  -0.004065   0.000000   0.000000   0.000000   0.000000
   31  O  1 YYZ   0.000000   0.004723   0.000000   0.000000  -0.004138
   32  O  1 ZZX  -0.000661   0.000000   0.000000   0.000000   0.000000
   33  O  1 ZZY   0.000000   0.000000   0.000000   0.002482   0.000000
   34  O  1 XYZ   0.000000   0.000000   0.001113   0.000000   0.000000
   35  H  2  S    0.000000   0.012092   0.000000   0.081553   0.094826
   36  H  2  S    0.000000  -0.436817   0.000000   4.435063  -0.223033
   37  H  2  S    0.000000  -0.019237   0.000000   0.769510   0.308929
   38  H  2  X   -0.017945   0.000000  -0.010587   0.000000   0.000000
   39  H  2  Y    0.000000  -0.009358   0.000000   0.033552  -0.019829
   40  H  2  Z    0.000000   0.005667   0.000000  -0.014593  -0.010521
   41  H  2  X    0.968093   0.000000   1.051188   0.000000   0.000000
   42  H  2  Y    0.000000  -0.979445   0.000000   1.884571   0.565251
   43  H  2  Z    0.000000  -0.153038   0.000000  -2.063514  -1.064886
   44  H  2 XX    0.000000  -0.000903   0.000000  -0.015959  -0.016269
   45  H  2 YY    0.000000  -0.012754   0.000000   0.009440  -0.000581
   46  H  2 ZZ    0.000000   0.013656   0.000000   0.006520   0.016850
   47  H  2 XY    0.014190   0.000000   0.013220   0.000000   0.000000
   48  H  2 XZ   -0.008099   0.000000  -0.011341   0.000000   0.000000
   49  H  2 YZ    0.000000   0.000227   0.000000  -0.020314  -0.039723
   50  H  3  S    0.000000   0.012092   0.000000  -0.081553   0.094826
   51  H  3  S    0.000000  -0.436817   0.000000  -4.435063  -0.223033
   52  H  3  S    0.000000  -0.019237   0.000000  -0.769510   0.308929
   53  H  3  X   -0.017945   0.000000   0.010587   0.000000   0.000000
   54  H  3  Y    0.000000   0.009358   0.000000   0.033552   0.019829
   55  H  3  Z    0.000000   0.005667   0.000000   0.014593  -0.010521
   56  H  3  X    0.968093   0.000000  -1.051188   0.000000   0.000000
   57  H  3  Y    0.000000   0.979445   0.000000   1.884571  -0.565251
   58  H  3  Z    0.000000  -0.153038   0.000000   2.063514  -1.064886
   59  H  3 XX    0.000000  -0.000903   0.000000   0.015959  -0.016269
   60  H  3 YY    0.000000  -0.012754   0.000000  -0.009440  -0.000581
   61  H  3 ZZ    0.000000   0.013656   0.000000  -0.006520   0.016850
   62  H  3 XY   -0.014190   0.000000   0.013220   0.000000   0.000000
   63  H  3 XZ   -0.008099   0.000000   0.011341   0.000000   0.000000
   64  H  3 YZ    0.000000  -0.000227   0.000000  -0.020314   0.039723

                     16         17         18         19         20
                    0.5702     0.7874     0.7935     1.0365     1.3706
                     B2         B1         A1         B2         A1  
    1  O  1  S    0.000000   0.000000  -0.346432   0.000000  -1.478947
    2  O  1  S    0.000000   0.000000  -0.135877   0.000000  -0.186853
    3  O  1  S    0.000000   0.000000   4.823766   0.000000   5.069185
    4  O  1  X    0.000000  -0.508348   0.000000   0.000000   0.000000
    5  O  1  Y    0.090074   0.000000   0.000000  -0.263006   0.000000
    6  O  1  Z    0.000000   0.000000  -0.114998   0.000000   0.226399
    7  O  1  X    0.000000   2.281751   0.000000   0.000000   0.000000
    8  O  1  Y   -0.999376   0.000000   0.000000   6.770388   0.000000
    9  O  1  Z    0.000000   0.000000   0.367570   0.000000   1.357462
   10  O  1  X    0.000000  -0.520330   0.000000   0.000000   0.000000
   11  O  1  Y    0.317781   0.000000   0.000000   0.346173   0.000000
   12  O  1  Z    0.000000   0.000000   0.607568   0.000000  -0.344347
   13  O  1 XX    0.000000   0.000000  -0.302670   0.000000   0.327163
   14  O  1 YY    0.000000   0.000000   0.276971   0.000000  -0.020451
   15  O  1 ZZ    0.000000   0.000000   0.025700   0.000000  -0.306711
   16  O  1 XY    0.000000   0.000000   0.000000   0.000000   0.000000
   17  O  1 XZ    0.000000  -0.022887   0.000000   0.000000   0.000000
   18  O  1 YZ    0.175429   0.000000   0.000000   0.627546   0.000000
   19  O  1 XX    0.000000   0.000000  -0.007197   0.000000   0.013644
   20  O  1 YY    0.000000   0.000000   0.007056   0.000000  -0.004840
   21  O  1 ZZ    0.000000   0.000000   0.000141   0.000000  -0.008803
   22  O  1 XY    0.000000   0.000000   0.000000   0.000000   0.000000
   23  O  1 XZ    0.000000  -0.011708   0.000000   0.000000   0.000000
   24  O  1 YZ    0.021290   0.000000   0.000000  -0.000297   0.000000
   25  O  1 XXX   0.000000  -0.003524   0.000000   0.000000   0.000000
   26  O  1 YYY  -0.001363   0.000000   0.000000   0.006085   0.000000
   27  O  1 ZZZ   0.000000   0.000000  -0.032411   0.000000   0.002066
   28  O  1 XXY  -0.009729   0.000000   0.000000  -0.051335   0.000000
   29  O  1 XXZ   0.000000   0.000000  -0.040596   0.000000  -0.000453
   30  O  1 YYX   0.000000   0.003274   0.000000   0.000000   0.000000
   31  O  1 YYZ   0.000000   0.000000   0.084080   0.000000  -0.002319
   32  O  1 ZZX   0.000000   0.001455   0.000000   0.000000   0.000000
   33  O  1 ZZY   0.011557   0.000000   0.000000   0.043171   0.000000
   34  O  1 XYZ   0.000000   0.000000   0.000000   0.000000   0.000000
   35  H  2  S    0.038082   0.000000   0.268927  -0.184533  -0.462050
   36  H  2  S    1.464178   0.000000  -2.578554  10.354142  -1.538327
   37  H  2  S    0.967160   0.000000   0.280287   0.346312   0.034390
   38  H  2  X    0.000000  -0.059022   0.000000   0.000000   0.000000
   39  H  2  Y    0.037204   0.000000  -0.351652   0.301041  -0.098471
   40  H  2  Z   -0.077230   0.000000   0.241665  -0.280048  -0.156917
   41  H  2  X    0.000000  -0.646860   0.000000   0.000000   0.000000
   42  H  2  Y    2.073083   0.000000  -0.559900   3.074417  -0.599170
   43  H  2  Z    0.699308   0.000000   0.756389  -2.309225   0.546157
   44  H  2 XX   -0.038434   0.000000   0.068965  -0.052005   0.047084
   45  H  2 YY    0.045034   0.000000  -0.056454   0.052180  -0.008130
   46  H  2 ZZ   -0.006600   0.000000  -0.012511  -0.000176  -0.038954
   47  H  2 XY    0.000000  -0.013369   0.000000   0.000000   0.000000
   48  H  2 XZ    0.000000  -0.003399   0.000000   0.000000   0.000000
   49  H  2 YZ   -0.037727   0.000000   0.123237  -0.102968  -0.025404
   50  H  3  S   -0.038082   0.000000   0.268927   0.184533  -0.462050
   51  H  3  S   -1.464178   0.000000  -2.578554 -10.354142  -1.538327
   52  H  3  S   -0.967160   0.000000   0.280287  -0.346312   0.034390
   53  H  3  X    0.000000  -0.059022   0.000000   0.000000   0.000000
   54  H  3  Y    0.037204   0.000000   0.351652   0.301041   0.098471
   55  H  3  Z    0.077230   0.000000   0.241665   0.280048  -0.156917
   56  H  3  X    0.000000  -0.646860   0.000000   0.000000   0.000000
   57  H  3  Y    2.073083   0.000000   0.559900   3.074417   0.599170
   58  H  3  Z   -0.699308   0.000000   0.756389   2.309225   0.546157
   59  H  3 XX    0.038434   0.000000   0.068965   0.052005   0.047084
   60  H  3 YY   -0.045034   0.000000  -0.056454  -0.052180  -0.008130
   61  H  3 ZZ    0.006600   0.000000  -0.012511   0.000176  -0.038954
   62  H  3 XY    0.000000   0.013369   0.000000   0.000000   0.000000
   63  H  3 XZ    0.000000  -0.003399   0.000000   0.000000   0.000000
   64  H  3 YZ   -0.037727   0.000000  -0.123237  -0.102968   0.025404

                     21         22         23         24         25
                    1.4707     1.5700     1.6746     1.6858     2.0679
                     B2         A1         A2         B1         A1  
    1  O  1  S    0.000000  -0.783037   0.000000   0.000000  -0.546943
    2  O  1  S    0.000000  -0.104649   0.000000   0.000000  -0.080840
    3  O  1  S    0.000000   3.096596   0.000000   0.000000   1.299687
    4  O  1  X    0.000000   0.000000   0.000000  -0.388561   0.000000
    5  O  1  Y    0.390885   0.000000   0.000000   0.000000   0.000000
    6  O  1  Z    0.000000  -0.155803   0.000000   0.000000   0.159003
    7  O  1  X    0.000000   0.000000   0.000000   0.715173   0.000000
    8  O  1  Y    2.327685   0.000000   0.000000   0.000000   0.000000
    9  O  1  Z    0.000000   0.741003   0.000000   0.000000   0.594728
   10  O  1  X    0.000000   0.000000   0.000000   0.078329   0.000000
   11  O  1  Y   -1.707204   0.000000   0.000000   0.000000   0.000000
   12  O  1  Z    0.000000   0.242120   0.000000   0.000000  -0.438437
   13  O  1 XX    0.000000   0.034547   0.000000   0.000000  -0.625263
   14  O  1 YY    0.000000  -0.472232   0.000000   0.000000   0.461318
   15  O  1 ZZ    0.000000   0.437685   0.000000   0.000000   0.163945
   16  O  1 XY    0.000000   0.000000   0.690468   0.000000   0.000000
   17  O  1 XZ    0.000000   0.000000   0.000000   0.706651   0.000000
   18  O  1 YZ    0.033034   0.000000   0.000000   0.000000   0.000000
   19  O  1 XX    0.000000   0.003556   0.000000   0.000000  -0.005877
   20  O  1 YY    0.000000  -0.008159   0.000000   0.000000   0.000510
   21  O  1 ZZ    0.000000   0.004603   0.000000   0.000000   0.005367
   22  O  1 XY    0.000000   0.000000   0.003183   0.000000   0.000000
   23  O  1 XZ    0.000000   0.000000   0.000000  -0.003222   0.000000
   24  O  1 YZ    0.027303   0.000000   0.000000   0.000000   0.000000
   25  O  1 XXX   0.000000   0.000000   0.000000  -0.014940   0.000000
   26  O  1 YYY  -0.012252   0.000000   0.000000   0.000000   0.000000
   27  O  1 ZZZ   0.000000  -0.000152   0.000000   0.000000   0.007009
   28  O  1 XXY   0.067729   0.000000   0.000000   0.000000   0.000000
   29  O  1 XXZ   0.000000  -0.009020   0.000000   0.000000   0.022807
   30  O  1 YYX   0.000000   0.000000   0.000000   0.009729   0.000000
   31  O  1 YYZ   0.000000   0.009225   0.000000   0.000000  -0.032212
   32  O  1 ZZX   0.000000   0.000000   0.000000   0.010315   0.000000
   33  O  1 ZZY  -0.051291   0.000000   0.000000   0.000000   0.000000
   34  O  1 XYZ   0.000000   0.000000   0.018198   0.000000   0.000000
   35  H  2  S    0.336746  -0.228394   0.000000   0.000000  -0.414404
   36  H  2  S    0.226232  -0.932787   0.000000   0.000000  -0.200872
   37  H  2  S    0.341352   0.022953   0.000000   0.000000  -0.008730
   38  H  2  X    0.000000   0.000000  -0.430144   0.392811   0.000000
   39  H  2  Y   -0.646264   0.176478   0.000000   0.000000   0.334332
   40  H  2  Z    0.264686   0.377587   0.000000   0.000000  -0.213133
   41  H  2  X    0.000000   0.000000   0.520777  -0.446994   0.000000
   42  H  2  Y   -0.254815  -0.663170   0.000000   0.000000  -0.226044
   43  H  2  Z   -0.470380   0.034555   0.000000   0.000000   0.078039
   44  H  2 XX    0.076730   0.012521   0.000000   0.000000  -0.059238
   45  H  2 YY   -0.061090  -0.069463   0.000000   0.000000   0.032014
   46  H  2 ZZ   -0.015639   0.056942   0.000000   0.000000   0.027224
   47  H  2 XY    0.000000   0.000000   0.087052  -0.026424   0.000000
   48  H  2 XZ    0.000000   0.000000  -0.024718   0.110386   0.000000
   49  H  2 YZ    0.223029   0.043485   0.000000   0.000000   0.244491
   50  H  3  S   -0.336746  -0.228394   0.000000   0.000000  -0.414404
   51  H  3  S   -0.226232  -0.932787   0.000000   0.000000  -0.200872
   52  H  3  S   -0.341352   0.022953   0.000000   0.000000  -0.008730
   53  H  3  X    0.000000   0.000000   0.430144   0.392811   0.000000
   54  H  3  Y   -0.646264  -0.176478   0.000000   0.000000  -0.334332
   55  H  3  Z   -0.264686   0.377587   0.000000   0.000000  -0.213133
   56  H  3  X    0.000000   0.000000  -0.520777  -0.446994   0.000000
   57  H  3  Y   -0.254815   0.663170   0.000000   0.000000   0.226044
   58  H  3  Z    0.470380   0.034555   0.000000   0.000000   0.078039
   59  H  3 XX   -0.076730   0.012521   0.000000   0.000000  -0.059238
   60  H  3 YY    0.061090  -0.069463   0.000000   0.000000   0.032014
   61  H  3 ZZ    0.015639   0.056942   0.000000   0.000000   0.027224
   62  H  3 XY    0.000000   0.000000   0.087052   0.026424   0.000000
   63  H  3 XZ    0.000000   0.000000   0.024718   0.110386   0.000000
   64  H  3 YZ    0.223029  -0.043485   0.000000   0.000000  -0.244491

                     26         27         28         29         30
                    2.0958     2.2861     2.3784     2.5763     2.5912
                     B2         B1         A2         B2         A1  
    1  O  1  S    0.000000   0.000000   0.000000   0.000000  -0.523362
    2  O  1  S    0.000000   0.000000   0.000000   0.000000  -0.072784
    3  O  1  S    0.000000   0.000000   0.000000   0.000000   1.062295
    4  O  1  X    0.000000  -0.348031   0.000000   0.000000   0.000000
    5  O  1  Y   -0.149601   0.000000   0.000000   0.866319   0.000000
    6  O  1  Z    0.000000   0.000000   0.000000   0.000000   0.919581
    7  O  1  X    0.000000  -0.215731   0.000000   0.000000   0.000000
    8  O  1  Y    0.351763   0.000000   0.000000   1.474765   0.000000
    9  O  1  Z    0.000000   0.000000   0.000000   0.000000   0.861462
   10  O  1  X    0.000000   0.285003   0.000000   0.000000   0.000000
   11  O  1  Y   -0.245434   0.000000   0.000000  -1.162079   0.000000
   12  O  1  Z    0.000000   0.000000   0.000000   0.000000  -1.028753
   13  O  1 XX    0.000000   0.000000   0.000000   0.000000  -0.493097
   14  O  1 YY    0.000000   0.000000   0.000000   0.000000  -0.395873
   15  O  1 ZZ    0.000000   0.000000   0.000000   0.000000   0.888970
   16  O  1 XY    0.000000   0.000000   0.782183   0.000000   0.000000
   17  O  1 XZ    0.000000  -0.623100   0.000000   0.000000   0.000000
   18  O  1 YZ    0.142154   0.000000   0.000000   0.238976   0.000000
   19  O  1 XX    0.000000   0.000000   0.000000   0.000000   0.020425
   20  O  1 YY    0.000000   0.000000   0.000000   0.000000  -0.017217
   21  O  1 ZZ    0.000000   0.000000   0.000000   0.000000  -0.003208
   22  O  1 XY    0.000000   0.000000  -0.012732   0.000000   0.000000
   23  O  1 XZ    0.000000   0.004856   0.000000   0.000000   0.000000
   24  O  1 YZ    0.021022   0.000000   0.000000  -0.026489   0.000000
   25  O  1 XXX   0.000000  -0.032777   0.000000   0.000000   0.000000
   26  O  1 YYY   0.027145   0.000000   0.000000   0.025046   0.000000
   27  O  1 ZZZ   0.000000   0.000000   0.000000   0.000000  -0.008591
   28  O  1 XXY   0.019754   0.000000   0.000000  -0.009335   0.000000
   29  O  1 XXZ   0.000000   0.000000   0.000000   0.000000   0.011494
   30  O  1 YYX   0.000000   0.038056   0.000000   0.000000   0.000000
   31  O  1 YYZ   0.000000   0.000000   0.000000   0.000000   0.000032
   32  O  1 ZZX   0.000000   0.005918   0.000000   0.000000   0.000000
   33  O  1 ZZY  -0.056173   0.000000   0.000000  -0.024268   0.000000
   34  O  1 XYZ   0.000000   0.000000  -0.039420   0.000000   0.000000
   35  H  2  S    0.175156   0.000000   0.000000   0.020278  -0.202739
   36  H  2  S   -0.602849   0.000000   0.000000   0.980808  -0.408053
   37  H  2  S   -0.149658   0.000000   0.000000  -0.154999   0.091487
   38  H  2  X    0.000000   0.638125   0.681082   0.000000   0.000000
   39  H  2  Y    0.215011   0.000000   0.000000   0.410893  -0.527088
   40  H  2  Z    0.763267   0.000000   0.000000  -0.101627  -0.274832
   41  H  2  X    0.000000  -0.042177  -0.170378   0.000000   0.000000
   42  H  2  Y   -0.531315   0.000000   0.000000  -0.261355   0.145756
   43  H  2  Z   -0.417798   0.000000   0.000000  -0.324103  -0.140141
   44  H  2 XX   -0.019213   0.000000   0.000000   0.347012  -0.059121
   45  H  2 YY   -0.113286   0.000000   0.000000  -0.341550   0.167875
   46  H  2 ZZ    0.132500   0.000000   0.000000  -0.005462  -0.108754
   47  H  2 XY    0.000000  -0.260391  -0.025651   0.000000   0.000000
   48  H  2 XZ    0.000000  -0.064178   0.215912   0.000000   0.000000
   49  H  2 YZ   -0.062384   0.000000   0.000000   0.359311  -0.215226
   50  H  3  S   -0.175156   0.000000   0.000000  -0.020278  -0.202739
   51  H  3  S    0.602849   0.000000   0.000000  -0.980808  -0.408053
   52  H  3  S    0.149658   0.000000   0.000000   0.154999   0.091487
   53  H  3  X    0.000000   0.638125  -0.681082   0.000000   0.000000
   54  H  3  Y    0.215011   0.000000   0.000000   0.410893   0.527088
   55  H  3  Z   -0.763267   0.000000   0.000000   0.101627  -0.274832
   56  H  3  X    0.000000  -0.042177   0.170378   0.000000   0.000000
   57  H  3  Y   -0.531315   0.000000   0.000000  -0.261355  -0.145756
   58  H  3  Z    0.417798   0.000000   0.000000   0.324103  -0.140141
   59  H  3 XX    0.019213   0.000000   0.000000  -0.347012  -0.059121
   60  H  3 YY    0.113286   0.000000   0.000000   0.341550   0.167875
   61  H  3 ZZ   -0.132500   0.000000   0.000000   0.005462  -0.108754
   62  H  3 XY    0.000000   0.260391  -0.025651   0.000000   0.000000
   63  H  3 XZ    0.000000  -0.064178  -0.215912   0.000000   0.000000
   64  H  3 YZ   -0.062384   0.000000   0.000000   0.359311   0.215226

                     31         32         33         34         35
                    2.7618     2.8976     2.9166     3.0993     3.2351
                     A1         B1         A1         B2         A2  
    1  O  1  S   -0.540344   0.000000  -0.232361   0.000000   0.000000
    2  O  1  S   -0.097383   0.000000  -0.025574   0.000000   0.000000
    3  O  1  S    1.804129   0.000000  -0.585546   0.000000   0.000000
    4  O  1  X    0.000000  -0.264761   0.000000   0.000000   0.000000
    5  O  1  Y    0.000000   0.000000   0.000000  -0.061061   0.000000
    6  O  1  Z    0.863644   0.000000   0.250321   0.000000   0.000000
    7  O  1  X    0.000000  -0.035035   0.000000   0.000000   0.000000
    8  O  1  Y    0.000000   0.000000   0.000000   0.766676   0.000000
    9  O  1  Z    0.763561   0.000000   0.116546   0.000000   0.000000
   10  O  1  X    0.000000   0.295279   0.000000   0.000000   0.000000
   11  O  1  Y    0.000000   0.000000   0.000000   0.677602   0.000000
   12  O  1  Z   -0.769010   0.000000  -0.341968   0.000000   0.000000
   13  O  1 XX   -0.329766   0.000000  -0.381060   0.000000   0.000000
   14  O  1 YY    0.524156   0.000000  -0.221797   0.000000   0.000000
   15  O  1 ZZ   -0.194389   0.000000   0.602857   0.000000   0.000000
   16  O  1 XY    0.000000   0.000000   0.000000   0.000000  -0.245642
   17  O  1 XZ    0.000000  -0.569455   0.000000   0.000000   0.000000
   18  O  1 YZ    0.000000   0.000000   0.000000   0.068807   0.000000
   19  O  1 XX    0.026574   0.000000  -0.005153   0.000000   0.000000
   20  O  1 YY   -0.013213   0.000000   0.041300   0.000000   0.000000
   21  O  1 ZZ   -0.013361   0.000000  -0.036147   0.000000   0.000000
   22  O  1 XY    0.000000   0.000000   0.000000   0.000000  -0.022655
   23  O  1 XZ    0.000000  -0.002520   0.000000   0.000000   0.000000
   24  O  1 YZ    0.000000   0.000000   0.000000  -0.024104   0.000000
   25  O  1 XXX   0.000000  -0.026230   0.000000   0.000000   0.000000
[...]
   64  H  3 YZ    0.158619  -0.292499  -0.215181   0.000000   0.000000

                     51         52         53         54         55
                    7.0867     7.1977     7.3145     7.3222     7.6492
                     B2         B1         A2         A1         A1  
    1  O  1  S    0.000000   0.000000   0.000000   0.269087  -0.459274
    2  O  1  S    0.000000   0.000000   0.000000  -0.268756  -0.147301
    3  O  1  S    0.000000   0.000000   0.000000   0.269841   2.429028
    4  O  1  X    0.000000   0.229511   0.000000   0.000000   0.000000
    5  O  1  Y    0.205767   0.000000   0.000000   0.000000   0.000000
    6  O  1  Z    0.000000   0.000000   0.000000  -0.542457  -0.354980
    7  O  1  X    0.000000  -0.309750   0.000000   0.000000   0.000000
    8  O  1  Y   -0.543102   0.000000   0.000000   0.000000   0.000000
    9  O  1  Z    0.000000   0.000000   0.000000   0.529113   0.516947
   10  O  1  X    0.000000  -0.621818   0.000000   0.000000   0.000000
   11  O  1  Y    0.352119   0.000000   0.000000   0.000000   0.000000
   12  O  1  Z    0.000000   0.000000   0.000000   0.963979   0.424494
   13  O  1 XX    0.000000   0.000000   0.000000  -0.673846  -0.830209
   14  O  1 YY    0.000000   0.000000   0.000000  -0.591580   1.522670
   15  O  1 ZZ    0.000000   0.000000   0.000000   1.265426  -0.692462
   16  O  1 XY    0.000000   0.000000   1.302134   0.000000   0.000000
   17  O  1 XZ    0.000000  -1.046017   0.000000   0.000000   0.000000
   18  O  1 YZ    0.098725   0.000000   0.000000   0.000000   0.000000
   19  O  1 XX    0.000000   0.000000   0.000000   0.847121   0.717388
   20  O  1 YY    0.000000   0.000000   0.000000   0.246762  -1.029619
   21  O  1 ZZ    0.000000   0.000000   0.000000  -1.093883   0.312230
   22  O  1 XY    0.000000   0.000000  -0.974018   0.000000   0.000000
   23  O  1 XZ    0.000000   1.107879   0.000000   0.000000   0.000000
   24  O  1 YZ    0.684941   0.000000   0.000000   0.000000   0.000000
   25  O  1 XXX   0.000000   0.540101   0.000000   0.000000   0.000000
   26  O  1 YYY  -0.910109   0.000000   0.000000   0.000000   0.000000
   27  O  1 ZZZ   0.000000   0.000000   0.000000   0.386155  -0.538257
   28  O  1 XXY   0.054200   0.000000   0.000000   0.000000   0.000000
   29  O  1 XXZ   0.000000   0.000000   0.000000  -0.421562  -0.123885
   30  O  1 YYX   0.000000  -0.380307   0.000000   0.000000   0.000000
   31  O  1 YYZ   0.000000   0.000000   0.000000  -0.096520   0.846032
   32  O  1 ZZX   0.000000  -0.344314   0.000000   0.000000   0.000000
   33  O  1 ZZY   1.166839   0.000000   0.000000   0.000000   0.000000
   34  O  1 XYZ   0.000000   0.000000   0.872381   0.000000   0.000000
   35  H  2  S    0.407713   0.000000   0.000000  -0.362747  -0.866665
   36  H  2  S    0.001652   0.000000   0.000000  -0.079473  -0.556588
   37  H  2  S   -0.004592   0.000000   0.000000   0.020690   0.029005
   38  H  2  X    0.000000   0.425011   0.583756   0.000000   0.000000
   39  H  2  Y    0.764984   0.000000   0.000000  -0.373494   0.021714
   40  H  2  Z    0.023875   0.000000   0.000000  -0.334663   0.561314
   41  H  2  X    0.000000   0.111668   0.098781   0.000000   0.000000
   42  H  2  Y    0.152223   0.000000   0.000000  -0.005859  -0.123448
   43  H  2  Z    0.128239   0.000000   0.000000  -0.092738   0.121589
   44  H  2 XX   -0.160099   0.000000   0.000000   0.034333  -0.051289
   45  H  2 YY    0.603333   0.000000   0.000000  -0.236998   0.312522
   46  H  2 ZZ   -0.443234   0.000000   0.000000   0.202666  -0.261232
   47  H  2 XY    0.000000   0.301631   0.325393   0.000000   0.000000
   48  H  2 XZ    0.000000  -0.104963  -0.330443   0.000000   0.000000
   49  H  2 YZ   -0.138816   0.000000   0.000000  -0.216940  -0.057489
   50  H  3  S   -0.407713   0.000000   0.000000  -0.362747  -0.866665
   51  H  3  S   -0.001652   0.000000   0.000000  -0.079473  -0.556588
   52  H  3  S    0.004592   0.000000   0.000000   0.020690   0.029005
   53  H  3  X    0.000000   0.425011  -0.583756   0.000000   0.000000
   54  H  3  Y    0.764984   0.000000   0.000000   0.373494  -0.021714
   55  H  3  Z   -0.023875   0.000000   0.000000  -0.334663   0.561314
   56  H  3  X    0.000000   0.111668  -0.098781   0.000000   0.000000
   57  H  3  Y    0.152223   0.000000   0.000000   0.005859   0.123448
   58  H  3  Z   -0.128239   0.000000   0.000000  -0.092738   0.121589
   59  H  3 XX    0.160099   0.000000   0.000000   0.034333  -0.051289
   60  H  3 YY   -0.603333   0.000000   0.000000  -0.236998   0.312522
   61  H  3 ZZ    0.443234   0.000000   0.000000   0.202666  -0.261232
   62  H  3 XY    0.000000  -0.301631   0.325393   0.000000   0.000000
   63  H  3 XZ    0.000000  -0.104963   0.330443   0.000000   0.000000
   64  H  3 YZ   -0.138816   0.000000   0.000000   0.216940   0.057489

                     56         57
                    7.7157    10.3832
                     B2         A1  
    1  O  1  S    0.000000   7.688946
    2  O  1  S    0.000000  -2.453320
    3  O  1  S    0.000000  -5.373747
    4  O  1  X    0.000000   0.000000
    5  O  1  Y   -0.822124   0.000000
    6  O  1  Z    0.000000   0.037937
    7  O  1  X    0.000000   0.000000
    8  O  1  Y    1.462022   0.000000
    9  O  1  Z    0.000000  -0.756196
   10  O  1  X    0.000000   0.000000
   11  O  1  Y    1.797688   0.000000
   12  O  1  Z    0.000000   1.274585
   13  O  1 XX    0.000000  -0.304774
   14  O  1 YY    0.000000   0.410911
   15  O  1 ZZ    0.000000  -0.106136
   16  O  1 XY    0.000000   0.000000
   17  O  1 XZ    0.000000   0.000000
   18  O  1 YZ    2.095768   0.000000
   19  O  1 XX    0.000000  -0.255330
   20  O  1 YY    0.000000   0.163503
   21  O  1 ZZ    0.000000   0.091827
   22  O  1 XY    0.000000   0.000000
   23  O  1 XZ    0.000000   0.000000
   24  O  1 YZ   -0.938555   0.000000
   25  O  1 XXX   0.000000   0.000000
   26  O  1 YYY  -0.346166   0.000000
   27  O  1 ZZZ   0.000000  -0.196993
   28  O  1 XXY  -0.485860   0.000000
   29  O  1 XXZ   0.000000  -0.181968
   30  O  1 YYX   0.000000   0.000000
   31  O  1 YYZ   0.000000   0.446262
   32  O  1 ZZX   0.000000   0.000000
   33  O  1 ZZY   0.950290   0.000000
   34  O  1 XYZ   0.000000   0.000000
   35  H  2  S    1.517653  -0.922835
   36  H  2  S    1.204454   0.645244
   37  H  2  S    0.033153  -0.028404
   38  H  2  X    0.000000   0.000000
   39  H  2  Y    0.714518  -0.798015
   40  H  2  Z   -0.247456   0.707574
   41  H  2  X    0.000000   0.000000
   42  H  2  Y    0.247540   0.276550
   43  H  2  Z   -0.317500  -0.109304
   44  H  2 XX    0.112939   0.268266
   45  H  2 YY    0.131381  -0.185944
   46  H  2 ZZ   -0.244321  -0.082323
   47  H  2 XY    0.000000   0.000000
   48  H  2 XZ    0.000000   0.000000
   49  H  2 YZ    0.104320   0.438294
   50  H  3  S   -1.517653  -0.922835
   51  H  3  S   -1.204454   0.645244
   52  H  3  S   -0.033153  -0.028404
   53  H  3  X    0.000000   0.000000
   54  H  3  Y    0.714518   0.798015
   55  H  3  Z    0.247456   0.707574
   56  H  3  X    0.000000   0.000000
   57  H  3  Y    0.247540  -0.276550
   58  H  3  Z    0.317500  -0.109304
   59  H  3 XX   -0.112939   0.268266
   60  H  3 YY   -0.131381  -0.185944
   61  H  3 ZZ    0.244321  -0.082323
   62  H  3 XY    0.000000   0.000000
   63  H  3 XZ    0.000000   0.000000
   64  H  3 YZ    0.104320  -0.438294
 .....DONE WITH MCSCF ITERATIONS.....
 CPU     0: STEP CPU TIME=     0.11 TOTAL CPU TIME=        0.4 (    0.0 MIN)
 TOTAL WALL CLOCK TIME=        1.0 SECONDS, CPU UTILIZATION IS  42.42%

     ----------------------------------------------------------------
     PROPERTY VALUES FOR THE MCSCF SELF-CONSISTENT FIELD WAVEFUNCTION
     ----------------------------------------------------------------

          -----------------
          ENERGY COMPONENTS
          -----------------

         WAVEFUNCTION NORMALIZATION =       1.0000000000

                ONE ELECTRON ENERGY =     -41.4515528721
                TWO ELECTRON ENERGY =      17.4191531030
           NUCLEAR REPULSION ENERGY =       6.9807632466
                                      ------------------
                       TOTAL ENERGY =     -17.0516365225

 ELECTRON-ELECTRON POTENTIAL ENERGY =      17.4191531030
  NUCLEUS-ELECTRON POTENTIAL ENERGY =     -54.9088054604
   NUCLEUS-NUCLEUS POTENTIAL ENERGY =       6.9807632466
                                      ------------------
             TOTAL POTENTIAL ENERGY =     -30.5088891107
               TOTAL KINETIC ENERGY =      13.4572525882
                 VIRIAL RATIO (V/T) =       2.2670964159

          ---------------------------------------
          MULLIKEN AND LOWDIN POPULATION ANALYSES
          ---------------------------------------

     ATOMIC MULLIKEN POPULATION IN EACH MOLECULAR ORBITAL

                      1          2          3          4          5

                  1.999103   1.988276   1.974972   1.974897   0.024926

    1             1.892383   1.678014   1.476100   1.173494   0.014349
    2             0.053360   0.155131   0.249436   0.400701   0.005289
    3             0.053360   0.155131   0.249436   0.400701   0.005289

                      6          7          8

                  0.023455   0.011300   0.003070

    1             0.014295   0.010071   0.002725
    2             0.004580   0.000614   0.000173
    3             0.004580   0.000614   0.000173
 WARNING! MCSCF POPULATIONS SHOWN ABOVE ARE FOR THE NATURAL ORBITALS.
 IGNORE THE ABOVE DATA FOR MCSCF FUNCTIONS WHICH ARE NOT OF -FORS- TYPE.
 THE FOLLOWING POPULATIONS ARE CORRECT FOR ANY MCSCF WAVEFUNCTION.

               ----- POPULATIONS IN EACH AO -----
                             MULLIKEN      LOWDIN
              1  O  1  S      1.78794     0.29858
              2  O  1  S     -0.00504     0.17031
              3  O  1  S     -0.15616     0.19346
              4  O  1  X      1.86411     0.87113
              5  O  1  Y      1.43285     0.61239
              6  O  1  Z      1.61788     0.73441
              7  O  1  X      0.01300     0.17112
              8  O  1  Y     -0.17860     0.14163
              9  O  1  Z     -0.02804     0.17706
             10  O  1  X      0.01345     0.32649
             11  O  1  Y     -0.07724     0.26906
             12  O  1  Z     -0.04270     0.30193
             13  O  1 XX      0.00184     0.10496
             14  O  1 YY      0.00130     0.11788
             15  O  1 ZZ      0.00000     0.11101
             16  O  1 XY      0.00150     0.00000
             17  O  1 XZ      0.01017     0.00012
             18  O  1 YZ      0.00000     0.03570
             19  O  1 XX      0.00030     0.11684
             20  O  1 YY      0.00035     0.11391
             21  O  1 ZZ      0.00000     0.11394
             22  O  1 XY      0.00021     0.00000
             23  O  1 XZ      0.00291     0.00010
             24  O  1 YZ      0.00000     0.00235
             25  O  1 XXX     0.00010     0.19354
             26  O  1 YYY     0.00073     0.14457
             27  O  1 ZZZ     0.00001     0.15724
             28  O  1 XXY     0.00008     0.05087
             29  O  1 XXZ     0.00015     0.06801
             30  O  1 YYX     0.00000     0.09069
             31  O  1 YYZ     0.00031     0.10705
             32  O  1 ZZX     0.00000     0.09137
             33  O  1 ZZY     0.00000     0.08879
             34  O  1 XYZ     0.00000    -0.00000
             35  H  2  S      0.52763     0.27618
             36  H  2  S      0.20568     0.11611
             37  H  2  S     -0.00183     0.01570
             38  H  2  X      0.01706     0.02806
             39  H  2  Y      0.02540     0.03584
             40  H  2  Z      0.02273     0.03767
             41  H  2  X      0.03195     0.07230
             42  H  2  Y     -0.00879     0.06432
             43  H  2  Z      0.03657     0.08266
             44  H  2 XX      0.00211     0.04902
             45  H  2 YY      0.00208     0.10086
             46  H  2 ZZ      0.00293     0.08430
             47  H  2 XY      0.00142     0.01716
             48  H  2 XZ      0.00433     0.00976
             49  H  2 YZ      0.00000     0.02181
             50  H  3  S      0.52763     0.27618
             51  H  3  S      0.20568     0.11611
             52  H  3  S     -0.00183     0.01570
             53  H  3  X      0.01706     0.02806
             54  H  3  Y      0.02540     0.03584
             55  H  3  Z      0.02273     0.03767
             56  H  3  X      0.03195     0.07230
             57  H  3  Y     -0.00879     0.06432
             58  H  3  Z      0.03657     0.08266
             59  H  3 XX      0.00211     0.04902
             60  H  3 YY      0.00208     0.10086
             61  H  3 ZZ      0.00293     0.08430
             62  H  3 XY      0.00142     0.01716
             63  H  3 XZ      0.00433     0.00976
             64  H  3 YZ      0.00000     0.02181

          ----- MULLIKEN ATOMIC OVERLAP POPULATIONS -----
          (OFF-DIAGONAL ELEMENTS NEED TO BE MULTIPLIED BY 2)

             1           2           3

    1    5.3837919
    2    0.4388196   0.5155768
    3    0.4388196  -0.0851120   0.5155768

          TOTAL MULLIKEN AND LOWDIN ATOMIC POPULATIONS
       ATOM         MULL.POP.    CHARGE          LOW.POP.     CHARGE
    1 O             6.261431   -0.261431         5.976491    0.023509
    2 H             0.869284    0.130716         1.011754   -0.011754
    3 H             0.869284    0.130716         1.011754   -0.011754

          MULLIKEN SPHERICAL HARMONIC POPULATIONS
       ATOM           S       P       D      F      G      H      I    TOTAL
    1 O             1.63    4.61    0.02   0.00   0.00   0.00   0.00    6.26
    2 H             0.73    0.12    0.01   0.00   0.00   0.00   0.00    0.87
    3 H             0.73    0.12    0.01   0.00   0.00   0.00   0.00    0.87

          ---------------------
          ELECTROSTATIC MOMENTS
          ---------------------

 POINT   1           X           Y           Z (BOHR)    CHARGE
                -0.000000    0.000000    0.123987        0.00 (A.U.)
         DX          DY          DZ         /D/  (DEBYE)
    -0.000000    0.000000    1.920800    1.920800
 ...... END OF PROPERTY EVALUATION ......
 CPU     0: STEP CPU TIME=     0.02 TOTAL CPU TIME=        0.4 (    0.0 MIN)
 TOTAL WALL CLOCK TIME=        1.1 SECONDS, CPU UTILIZATION IS  40.74%
                580000  WORDS OF DYNAMIC MEMORY USED
 EXECUTION OF GAMESS TERMINATED NORMALLY Wed May 18 22:20:55 2016
 DDI: 263624 bytes (0.3 MB / 0 MWords) used by master data server.

 ----------------------------------------
 CPU timing information for all processes
 ========================================
 0: 0.330 + 0.114 = 0.444
 1: 0.380 + 0.47 = 0.427
 2: 0.305 + 0.74 = 0.379
 3: 0.363 + 0.58 = 0.421
 4: 0.332 + 0.92 = 0.425
 5: 0.394 + 0.49 = 0.444
 6: 0.374 + 0.75 = 0.450
 7: 0.374 + 0.51 = 0.425
 8: 0.360 + 0.62 = 0.422
 9: 0.332 + 0.59 = 0.391
 10: 0.345 + 0.64 = 0.410
 11: 0.329 + 0.64 = 0.393
 12: 0.337 + 0.67 = 0.404
 13: 0.330 + 0.69 = 0.399
 14: 0.304 + 0.42 = 0.346
 15: 0.326 + 0.71 = 0.397
 ----------------------------------------
 ddikick.x: exited gracefully.
----- accounting info -----
Files used on the master node Kylin were:
-rw-r--r-- 1 yyang173 yyang173   61795 May 18 22:20 /scr/yyang173/h2o.cas_rerun.F05
-rw-rw-r-- 1 yyang173 yyang173 6480576 May 18 22:20 /scr/yyang173/h2o.cas_rerun.F08
-rw-rw-r-- 1 yyang173 yyang173 6480576 May 18 22:20 /scr/yyang173/h2o.cas_rerun.F08.001
-rw-rw-r-- 1 yyang173 yyang173 6480576 May 18 22:20 /scr/yyang173/h2o.cas_rerun.F08.002
-rw-rw-r-- 1 yyang173 yyang173 6480576 May 18 22:20 /scr/yyang173/h2o.cas_rerun.F08.003
-rw-rw-r-- 1 yyang173 yyang173 6480576 May 18 22:20 /scr/yyang173/h2o.cas_rerun.F08.004
-rw-rw-r-- 1 yyang173 yyang173 6480576 May 18 22:20 /scr/yyang173/h2o.cas_rerun.F08.005
-rw-rw-r-- 1 yyang173 yyang173 6480576 May 18 22:20 /scr/yyang173/h2o.cas_rerun.F08.006
-rw-rw-r-- 1 yyang173 yyang173 6480576 May 18 22:20 /scr/yyang173/h2o.cas_rerun.F08.007
-rw-rw-r-- 1 yyang173 yyang173 6480576 May 18 22:20 /scr/yyang173/h2o.cas_rerun.F08.008
-rw-rw-r-- 1 yyang173 yyang173 6480576 May 18 22:20 /scr/yyang173/h2o.cas_rerun.F08.009
-rw-rw-r-- 1 yyang173 yyang173 6480576 May 18 22:20 /scr/yyang173/h2o.cas_rerun.F08.010
-rw-rw-r-- 1 yyang173 yyang173 6480576 May 18 22:20 /scr/yyang173/h2o.cas_rerun.F08.011
-rw-rw-r-- 1 yyang173 yyang173 6480576 May 18 22:20 /scr/yyang173/h2o.cas_rerun.F08.012
-rw-rw-r-- 1 yyang173 yyang173 6480576 May 18 22:20 /scr/yyang173/h2o.cas_rerun.F08.013
-rw-rw-r-- 1 yyang173 yyang173 6480576 May 18 22:20 /scr/yyang173/h2o.cas_rerun.F08.014
-rw-rw-r-- 1 yyang173 yyang173 6480576 May 18 22:20 /scr/yyang173/h2o.cas_rerun.F08.015
-rw-rw-r-- 1 yyang173 yyang173  196664 May 18 22:20 /scr/yyang173/h2o.cas_rerun.F09
-rw-rw-r-- 1 yyang173 yyang173  180016 May 18 22:20 /scr/yyang173/h2o.cas_rerun.F09.001
-rw-rw-r-- 1 yyang173 yyang173  180016 May 18 22:20 /scr/yyang173/h2o.cas_rerun.F09.002
-rw-rw-r-- 1 yyang173 yyang173  180016 May 18 22:20 /scr/yyang173/h2o.cas_rerun.F09.003
-rw-rw-r-- 1 yyang173 yyang173  180016 May 18 22:20 /scr/yyang173/h2o.cas_rerun.F09.004
-rw-rw-r-- 1 yyang173 yyang173  180016 May 18 22:20 /scr/yyang173/h2o.cas_rerun.F09.005
-rw-rw-r-- 1 yyang173 yyang173  180016 May 18 22:20 /scr/yyang173/h2o.cas_rerun.F09.006
-rw-rw-r-- 1 yyang173 yyang173  180016 May 18 22:20 /scr/yyang173/h2o.cas_rerun.F09.007
-rw-rw-r-- 1 yyang173 yyang173  180016 May 18 22:20 /scr/yyang173/h2o.cas_rerun.F09.008
-rw-rw-r-- 1 yyang173 yyang173  180016 May 18 22:20 /scr/yyang173/h2o.cas_rerun.F09.009
-rw-rw-r-- 1 yyang173 yyang173  180016 May 18 22:20 /scr/yyang173/h2o.cas_rerun.F09.010
-rw-rw-r-- 1 yyang173 yyang173  180016 May 18 22:20 /scr/yyang173/h2o.cas_rerun.F09.011
-rw-rw-r-- 1 yyang173 yyang173  180016 May 18 22:20 /scr/yyang173/h2o.cas_rerun.F09.012
-rw-rw-r-- 1 yyang173 yyang173  180016 May 18 22:20 /scr/yyang173/h2o.cas_rerun.F09.013
-rw-rw-r-- 1 yyang173 yyang173  180016 May 18 22:20 /scr/yyang173/h2o.cas_rerun.F09.014
-rw-rw-r-- 1 yyang173 yyang173  180016 May 18 22:20 /scr/yyang173/h2o.cas_rerun.F09.015
-rw-rw-r-- 1 yyang173 yyang173 2846640 May 18 22:20 /scr/yyang173/h2o.cas_rerun.F10
-rw-rw-r-- 1 yyang173 yyang173    9904 May 18 22:20 /scr/yyang173/h2o.cas_rerun.F12
-rw-rw-r-- 1 yyang173 yyang173  416480 May 18 22:20 /scr/yyang173/h2o.cas_rerun.F13
-rw-rw-r-- 1 yyang173 yyang173  416480 May 18 22:20 /scr/yyang173/h2o.cas_rerun.F13.001
-rw-rw-r-- 1 yyang173 yyang173  416480 May 18 22:20 /scr/yyang173/h2o.cas_rerun.F13.002
-rw-rw-r-- 1 yyang173 yyang173  416480 May 18 22:20 /scr/yyang173/h2o.cas_rerun.F13.003
-rw-rw-r-- 1 yyang173 yyang173  416480 May 18 22:20 /scr/yyang173/h2o.cas_rerun.F13.004
-rw-rw-r-- 1 yyang173 yyang173  416480 May 18 22:20 /scr/yyang173/h2o.cas_rerun.F13.005
-rw-rw-r-- 1 yyang173 yyang173  416480 May 18 22:20 /scr/yyang173/h2o.cas_rerun.F13.006
-rw-rw-r-- 1 yyang173 yyang173  416480 May 18 22:20 /scr/yyang173/h2o.cas_rerun.F13.007
-rw-rw-r-- 1 yyang173 yyang173  416480 May 18 22:20 /scr/yyang173/h2o.cas_rerun.F13.008
-rw-rw-r-- 1 yyang173 yyang173  416480 May 18 22:20 /scr/yyang173/h2o.cas_rerun.F13.009
-rw-rw-r-- 1 yyang173 yyang173  416480 May 18 22:20 /scr/yyang173/h2o.cas_rerun.F13.010
-rw-rw-r-- 1 yyang173 yyang173  416480 May 18 22:20 /scr/yyang173/h2o.cas_rerun.F13.011
-rw-rw-r-- 1 yyang173 yyang173  416480 May 18 22:20 /scr/yyang173/h2o.cas_rerun.F13.012
-rw-rw-r-- 1 yyang173 yyang173  416480 May 18 22:20 /scr/yyang173/h2o.cas_rerun.F13.013
-rw-rw-r-- 1 yyang173 yyang173  416480 May 18 22:20 /scr/yyang173/h2o.cas_rerun.F13.014
-rw-rw-r-- 1 yyang173 yyang173  416480 May 18 22:20 /scr/yyang173/h2o.cas_rerun.F13.015
-rw-rw-r-- 1 yyang173 yyang173  180312 May 18 22:20 /scr/yyang173/h2o.cas_rerun.F15
-rw-rw-r-- 1 yyang173 yyang173       0 May 18 22:20 /scr/yyang173/h2o.cas_rerun.F23
Wed May 18 22:20:58 CDT 2016
0.262u 0.142s 0:04.62 8.6%	0+0k 0+152io 0pf+0w
