  Input file(s): vmc_short_noj.in.xml 

=====================================================
                    QMCPACK 3.9.9

       (c) Copyright 2003-  QMCPACK developers

                    Please cite:
 J. Kim et al. J. Phys. Cond. Mat. 30 195901 (2018)
      https://doi.org/10.1088/1361-648X/aab9c3

  Git branch: LCAO-UHF-hdf5
  Last git commit: 87a30d69c8dfe0e0a183c23245db83c228d89f4a-dirty
  Last git commit date: Tue Aug 18 11:20:51 2020 -0400
  Last git commit subject: Merge pull request #2640 from markdewing/update_check_scalar
=====================================================
  Global options 

  Total number of MPI ranks = 1
  Number of MPI groups      = 1
  MPI group ID              = 0
  Number of ranks in group  = 1
  MPI ranks per node        = 1
  OMP 1st level threads     = 16
  OMP nested threading disabled or only 1 thread on the 2nd level

  Precision used in this calculation, see definitions in the manual:
  Base precision      = double
  Full precision      = double

  Structure-of-arrays (SoA) optimization enabled

  Input XML = vmc_short_noj.in.xml

  Project = vmc_short_noj
  date    = 2020-08-25 13:53:03 CDT
  host    = abenali

 Random Number
 -------------
  Offset for the random number seeds based on time: 527

  Range of prime numbers to use as seeds over processors and threads = 3803-3929


 Particle Set 
 ------------
  Name: ion0
  All the species have the same mass 1
  Particle set size: 1

 Particle Set 
 ------------
  Name: e
  All the species have the same mass 1
  Particle set size: 8

 Wavefunction setup: 
 ------------------- 
  Name: psi0
  LCAO: SoaAtomicBasisSet<MultiQuintic,1>
Reading BasisSet from HDF5 file:O-UHF-Triplet.h5
<input node="atomicBasisSet" name="cc-pcvdz" expandYlm="pyscf" angular="spherical" elementType="O" normalized="no" type="Numerical" expM="0" />
  AO BasisSet for O
   Spherical Harmonics contain (-1)^m factor
   Angular momentum m expanded as -l, ... ,l, with the exception of L=1 (1,-1,0)
   Grid is created by the input paremters in h5
    Using log grid ri = 1e-06 rf = 100 npts = 1001
   R(n,l,m,s) 0 0 0 0
   R(n,l,m,s) 1 0 0 0
   R(n,l,m,s) 2 0 0 0
   R(n,l,m,s) 3 1 0 0
   R(n,l,m,s) 4 1 0 0
   R(n,l,m,s) 5 2 0 0
   R(n,l,m,s) 6 0 0 0
   R(n,l,m,s) 7 1 0 0
Expanding Ylm as L=1 as (1,-1,0) and L>1 as -l,-l+1,...,l-1,l
   Adding 1 spherical orbitals
   Adding 1 spherical orbitals
   Adding 1 spherical orbitals
   Adding 3 spherical orbitals
   Adding 3 spherical orbitals
   Adding 5 spherical orbitals
   Adding 1 spherical orbitals
   Adding 3 spherical orbitals
  Setting cutoff radius 5.36056e+06

   Maximum Angular Momentum  = 2
   Number of Radial functors = 8
   Basis size                = 18

  Created SPOSet builder named 'LCAOBSet' of type molecularorbital
Reuse SPOSetBuilder "LCAOBSet" type MolecularOrbital
  Building SPOSet '' with '' basis set.
Reading cusp info from : updet.cuspInfo.xml
Found precomputed cusp data for spo set: updet
Reuse SPOSetBuilder "LCAOBSet" type MolecularOrbital
  Building SPOSet '' with '' basis set.
Reading cusp info from : downdet.cuspInfo.xml
Found precomputed cusp data for spo set: downdet
  Creating a determinant updet group=0 sposet=updet
  Reusing a SPO set updet
  Setting delay_rank by default!
  Using rank-1 Sherman-Morrison Fahy update (SM1)
  Using DiracDeterminant with DelayedUpdate engine

  Creating a determinant downdet group=1 sposet=downdet
  Reusing a SPO set downdet
  Setting delay_rank by default!
  Using rank-1 Sherman-Morrison Fahy update (SM1)
  Using DiracDeterminant with DelayedUpdate engine

  Added a fermionic WaveFunctionComponent SlaterDet
  QMCHamiltonian::addOperator Kinetic to H, physical Hamiltonian 
  QMCHamiltonian::addOperator ElecElec to H, physical Hamiltonian 
QMCHamiltonian::addOperatorType added type coulomb named ElecElec
  CoulombAA for ion0 is not created.  Number of particles == 1 and nonPeriodic
  QMCHamiltonian::addOperator IonElec to H, physical Hamiltonian 
QMCHamiltonian::addOperatorType added type coulomb named IonElec

  QMCHamiltonian::add2WalkerProperty added
    3 to P::PropertyList 
    0 to P::Collectables 
    starting Index of the observables in P::PropertyList = 9
ParticleSetPool::randomize 1 ParticleSet.
<init source="ion0" target="e">
</init>
  Initialization Execution time = 0.08553 secs
=========================================================
 Summary of QMC systems 
=========================================================
ParticleSetPool has: 

  ParticleSet 'e' contains 8 particles :  u(5) d(3)

    u -1.4033603936e+00 -5.4595778156e-01  7.1461584917e-01
    u  2.5520393813e-01 -1.4014275260e+00  9.4479140348e-01
    u  1.4773439243e+00 -1.0804900076e+00  5.6186442186e-01
    u  7.5407919576e-01 -1.8565035903e+00 -6.0865980068e-01
    u  1.5934480803e+00 -1.3749416592e+00  1.2762511525e-01
    d  6.2524911942e-01 -6.8834942246e-01  9.9084636350e-01
    d  3.7672484353e+00 -1.1945260676e-01  4.6417281442e-01
    d -3.5148084319e-01  2.7587018140e+00  1.2844077749e-01

  Distance table for dissimilar particles (A-B):
    source: ion0  target: e
    Using structure-of-arrays (SoA) data layout
    Distance computations use open boundary conditions in 3D.

  Distance table for similar particles (A-A):
    source/target: e
    Using structure-of-arrays (SoA) data layout
    Distance computations use open boundary conditions in 3D.


  ParticleSet 'ion0' contains 1 particles :  O(1)

    O  0.0000000000e+00  0.0000000000e+00  0.0000000000e+00


  Hamiltonian h0
  Kinetic         Kinetic energy
  ElecElec        CoulombAB source=e

  IonElec         CoulombAA source/target ion0



=========================================================
  Start VMC
  File Root vmc_short_noj.s000 append = no 
=========================================================
Resetting walkers
  Adding 16 walkers to 0 existing sets
  Total number of walkers: 1.6000000000e+01
  Total weight: 1.6000000000e+01
  Resetting Properties of the walkers 1 x 12

<vmc function="put">
  qmc_counter=0  my_counter=0
  time step      = 4.0000000000e-01
  blocks         = 200
  steps          = 3000
  substeps       = 3
  current        = 0
  target samples = 0.0000000000e+00
  walkers/mpi    = 16

  stepsbetweensamples = 603000
  SpinMoves      = no
<parameter name="blocks" condition="int">200</parameter>
<parameter name="blocks_between_recompute" condition="int">0</parameter>
<parameter name="check_properties" condition="int">100</parameter>
<parameter name="checkproperties" condition="int">100</parameter>
<parameter name="current" condition="int">0</parameter>
<parameter name="dmcwalkersperthread" condition="real">0.0000000000e+00</parameter>
<parameter name="maxcpusecs" condition="real">3.6000000000e+05</parameter>
<parameter name="record_configs" condition="int">0</parameter>
<parameter name="record_walkers" condition="int">603000</parameter>
<parameter name="recordconfigs" condition="int">0</parameter>
<parameter name="recordwalkers" condition="int">603000</parameter>
<parameter name="rewind" condition="int">0</parameter>
<parameter name="samples" condition="real">0.0000000000e+00</parameter>
<parameter name="samplesperthread" condition="real">0.0000000000e+00</parameter>
<parameter name="spinmass" condition="double">1.0000000000e+00</parameter>
<parameter name="spinmoves" condition="string">no</parameter>
<parameter name="steps" condition="int">3000</parameter>
<parameter name="stepsbetweensamples" condition="int">603000</parameter>
<parameter name="store_configs" condition="int">0</parameter>
<parameter name="storeconfigs" condition="int">0</parameter>
<parameter name="sub_steps" condition="int">3</parameter>
<parameter name="substeps" condition="int">3</parameter>
<parameter name="tau" condition="au">4.0000000000e-01</parameter>
<parameter name="time_step" condition="au">4.0000000000e-01</parameter>
<parameter name="timestep" condition="au">4.0000000000e-01</parameter>
<parameter name="use_drift" condition="string">yes</parameter>
<parameter name="usedrift" condition="string">yes</parameter>
<parameter name="walkers" condition="int">16</parameter>
<parameter name="warmup_steps" condition="int">50</parameter>
<parameter name="warmupsteps" condition="int">50</parameter>
  DumpConfig==false Nothing (configurations, state) will be saved.
  Walker Samples are dumped every 603000 steps.
</vmc>
  Set drift_modifier UNR parameter a = 1.0000000000e+00
  Adding a default LocalEnergyEstimator for the MainEstimator 
  CloneManager::makeClones makes 16 clones for W/Psi/H.
  Cloning methods for both Psi and H are used
===== Memory Usage before cloning =====
Available memory on node 0, free + buffers : 15543 MB
Memory footprint by rank 0 on node 0       : 86 MB
==================================================
===== Memory Usage after cloning =====
Available memory on node 0, free + buffers : 15542 MB
Memory footprint by rank 0 on node 0       : 86 MB
==================================================
  Initial partition of walkers 0 1 2 3 4 5 6 7 8 9 10 11 12 13 14 15 16 

  Using Particle by Particle moves
  Walker moves with drift
  Total Sample Size   =0
  Walker distribution on root = 0 1 2 3 4 5 6 7 8 9 10 11 12 13 14 15 16 
===== Memory Usage after the buffer registration =====
Available memory on node 0, free + buffers : 15541 MB
Memory footprint by rank 0 on node 0       : 86 MB
==================================================
  Anonymous Buffer size per walker : 18400 Bytes.
MEMORY increase 0 MB VMC::resetRun
====================================================
  SimpleFixedNodeBranch::finalize after a VMC block
    QMC counter        = 0
    time step          = 0.4
    reference energy   = -74.3552
    reference variance = 7.68133
====================================================
  QMC Execution time = 9.5789e+01 secs
  Total Execution time = 9.5795e+01 secs

=========================================================
  A new xml input file : vmc_short_noj.s000.cont.xml
