  Input file(s): optm-hybrid.xml 

=====================================================
                    QMCPACK 3.8.9

       (c) Copyright 2003-  QMCPACK developers

                    Please cite:
 J. Kim et al. J. Phys. Cond. Mat. 30 195901 (2018)
      https://doi.org/10.1088/1361-648X/aab9c3

  Git branch: pr_revisions
  Last git commit: 6b30d664d9b78876345ea3772eb713a4c9701eb8-dirty
  Last git commit date: Tue Sep 17 18:24:29 2019 -0700
  Last git commit subject: Add a unit test for descent engine parameter update
=====================================================
  Global options 

  Total number of MPI ranks = 4
  Number of MPI groups      = 1
  MPI group ID              = 0
  Number of ranks in group  = 4
  MPI ranks per node        = 4
  OMP 1st level threads     = 1
  OMP nested threading disabled or only 1 thread on the 2nd level

  Precision used in this calculation, see definitions in the manual:
  Base precision      = double
  Full precision      = double

  Structure-of-arrays (SoA) optimization enabled

  Input XML = optm-hybrid.xml

  Project = hybrid_ref
  date    = 2019-09-20 15:47:31 PDT
  host    = airbears2-10-142-8-176.airbears2.1918.berkeley.edu

 Random Number
 -------------
  Offset for the random number seeds based on time: 771

  Range of prime numbers to use as seeds over processors and threads = 5869-5903


 Particle Set 
 ------------
  Name: e
  All the species have the same mass 1
  Particle set size: 4

 Particle Set 
 ------------
  Name: ion0
  All the species have the same mass 1
  Particle set size: 4

 Wavefunction setup: 
 ------------------- 
  Name: psi0
  Created SPOSet builder named 'LCAOBSet' of type molecularorbital
  LCAO: SoaAtomicBasisSet<MultiQuintic,0>
  AO BasisSet for H
   Angular momentum expanded in cartesian functions x^lx y^ly z^lz according to Gamess
Using log grid with default values: ri = 1e-06 rf = 100 npts = 1001
   R(n,l,m,s) 0 0 0 0
Expanding Ylm (angular function) according to Gamess using cartesian gaussians
Adding 1 cartesian gaussian orbitals for l= 0
  Setting cutoff radius 8.62979

   Maximum Angular Momentum  = 0
   Number of Radial functors = 1
   Basis size                = 1

Creating SPOSet in SlaterDetBuilder::put(xmlNodePtr cur).
spo_name = spo-up
  Building SPOSet 'spo-up' with 'LCAOBSet' basis set.
Creating SPOSet in SlaterDetBuilder::put(xmlNodePtr cur).
spo_name = spo-dn
  Building SPOSet 'spo-dn' with 'LCAOBSet' basis set.
Using Bryan's algorithm for MultiSlaterDeterminant expansion. 
Creating base determinant (up) for MSD expansion. 
Creating base determinant (down) for MSD expansion. 
Found determinant list. 
Reading CSFs.
Found 2 terms in the MSD expansion.
Norm of ci vector (sum of ci^2): 0.638005
Norm of qchem ci vector (sum of qchem_ci^2): 0.990143
Found 2 unique up determinants.
Found 2 unique down determinants.
Number of terms in pairs array: 1
Number of terms in pairs array: 1
CI coefficients are optimizable. 
  Added a fermionic WaveFunctionComponent MultiSlaterDeterminantFast

   Jastrow
   -------
    Name: J2   Type: Two-Body   Function: Bspline

    Radial function for species: u - u
     Number of parameters: 10
     Cusp: -0.25
     Cutoff radius: 10

     Name                        Value Type Recompute Use Index
     ---- ---------------------------- ---- --------- --- -----
     uu_0                 5.680176e-01    1         1  ON     0
     uu_1                 3.699138e-01    1         1  ON     1
     uu_2                 2.108829e-01    1         1  ON     2
     uu_3                 9.267632e-02    1         1  ON     3
     uu_4                 5.276940e-03    1         1  ON     4
     uu_5                -3.330962e-02    1         1  ON     5
     uu_6                -2.484192e-02    1         1  ON     6
     uu_7                 8.603361e-03    1         1  ON     7
     uu_8                 3.763565e-02    1         1  ON     8
     uu_9                 2.979626e-02    1         1  ON     9

    Radial function for species: u - d
     Number of parameters: 10
     Cusp: -0.5
     Cutoff radius: 10

     Name                        Value Type Recompute Use Index
     ---- ---------------------------- ---- --------- --- -----
     ud_0                 9.168016e-01    1         1  ON     0
     ud_1                 5.756625e-01    1         1  ON     1
     ud_2                 3.465443e-01    1         1  ON     2
     ud_3                 1.896617e-01    1         1  ON     3
     ud_4                 8.747532e-02    1         1  ON     4
     ud_5                 3.482162e-02    1         1  ON     5
     ud_6                 3.708930e-02    1         1  ON     6
     ud_7                 6.355172e-02    1         1  ON     7
     ud_8                 7.720516e-02    1         1  ON     8
     ud_9                 5.828843e-02    1         1  ON     9


   Jastrow
   -------
    Name: J1   Type: One-Body   Function: Bspline

    Radial function for element: H
     Number of parameters: 10
     Cusp: 1
     Cutoff radius: 5

     Name                        Value Type Recompute Use Index
     ---- ---------------------------- ---- --------- --- -----
     eH_0                 1.539994e-02    1         1  ON     0
     eH_1                 2.935596e-02    1         1  ON     1
     eH_2                -1.133046e-01    1         1  ON     2
     eH_3                -9.452275e-02    1         1  ON     3
     eH_4                -1.063167e-01    1         1  ON     4
     eH_5                -7.820047e-02    1         1  ON     5
     eH_6                -3.640043e-02    1         1  ON     6
     eH_7                -6.827574e-03    1         1  ON     7
     eH_8                 8.345458e-03    1         1  ON     8
     eH_9                 4.849582e-03    1         1  ON     9

  QMCHamiltonian::addOperator Kinetic to H, physical Hamiltonian 
  QMCHamiltonian::addOperator ElecElec to H, physical Hamiltonian 
QMCHamiltonian::addOperatorType added type coulomb named ElecElec
  QMCHamiltonian::addOperator IonElec to H, physical Hamiltonian 
QMCHamiltonian::addOperatorType added type coulomb named IonElec
  QMCHamiltonian::addOperator IonIon to H, physical Hamiltonian 
QMCHamiltonian::addOperatorType added type coulomb named IonIon

  QMCHamiltonian::add2WalkerProperty added
    4 to P::PropertyList 
    0 to P::Collectables 
    starting Index of the observables in P::PropertyList = 9
ParticleSetPool::randomize 
  Initialization Execution time = 0.00623 secs
=========================================================
 Summary of QMC systems 
=========================================================
ParticleSetPool has: 

  ParticleSet 'e' contains 4 particles :  u(2) d(2)

    u  1.0958951042e+00  5.1427708436e-01 -1.4428370103e+00
    u  6.0611124208e-01 -1.7216487456e-01 -7.7962973208e-01
    d -6.4575975825e-01  9.9108864642e-01  1.8564835946e-01
    d -7.5318592612e-02  2.7134132518e-01 -1.1765509155e+00

  Distance table for dissimilar particles (A-B):
    source: ion0  target: e
    Using structure-of-arrays (SoA) data layout
    Distance computations use open boundary conditions in 3D.

  Distance table for similar particles (A-A):
    source/target: e
    Using structure-of-arrays (SoA) data layout
    Distance computations use open boundary conditions in 3D.


  ParticleSet 'ion0' contains 4 particles :  H(4)

    H  0.0000000000e+00  0.0000000000e+00  0.0000000000e+00
    H  1.8897259877e+00  0.0000000000e+00  0.0000000000e+00
    H  0.0000000000e+00  0.0000000000e+00  2.8345889816e+00
    H  0.0000000000e+00  0.0000000000e+00  5.6691779632e+00

  Distance table for similar particles (A-A):
    source/target: ion0
    Using structure-of-arrays (SoA) data layout
    Distance computations use open boundary conditions in 3D.


  Hamiltonian h0
  Kinetic         Kinetic energy
  ElecElec        CoulombAB source=e

  IonElec         CoulombAA source/target ion0

  IonIon          CoulombAA source/target ion0


Loop execution max-interations = 62

=========================================================
  Start QMCFixedSampleLinearOptimize
  File Root hybrid_ref.s000 append = no 
=========================================================
  Skip QMCDriver::putQMCInfo 
  Resetting Properties of the walkers 1 x 13
HybridEngine saved MinMethod descent num_updates = 30
HybridEngine saved MinMethod adaptive num_updates = 2
  Adding 1 walkers to 0 existing sets
  Total number of walkers: 4.0000000000e+00
  Total weight: 4.0000000000e+00
nTargetPopulation: 2.0000000000e+04
nTargetSamples: 0
W.numSamples(): 0

=========================================================
  Start VMC
  File Root hybrid_ref.s000 append = no 
=========================================================
Resetting walkers
  Using the current 1 walkers.
  Total number of walkers: 4.0000000000e+00
  Total weight: 4.0000000000e+00
  Resetting Properties of the walkers 1 x 13

<vmc function="put">
  qmc_counter=0  my_counter=0
  time step      = 5.0000000000e-02
  blocks         = 100
  steps          = 50
  substeps       = 1
  current        = 0
  target samples = 2.0000000000e+04
  walkers/mpi    = 1

  stepsbetweensamples = 1
<parameter name="blocks" condition="int">100</parameter>
<parameter name="blocks_between_recompute" condition="int">0</parameter>
<parameter name="check_properties" condition="int">100</parameter>
<parameter name="checkproperties" condition="int">100</parameter>
<parameter name="current" condition="int">0</parameter>
<parameter name="dmcwalkersperthread" condition="real">5.0000000000e+03</parameter>
<parameter name="maxcpusecs" condition="real">3.6000000000e+05</parameter>
<parameter name="record_configs" condition="int">0</parameter>
<parameter name="record_walkers" condition="int">1</parameter>
<parameter name="recordconfigs" condition="int">0</parameter>
<parameter name="recordwalkers" condition="int">1</parameter>
<parameter name="rewind" condition="int">0</parameter>
<parameter name="samples" condition="real">2.0000000000e+04</parameter>
<parameter name="samplesperthread" condition="real">5.0000000000e+03</parameter>
<parameter name="steps" condition="int">50</parameter>
<parameter name="stepsbetweensamples" condition="int">1</parameter>
<parameter name="store_configs" condition="int">0</parameter>
<parameter name="storeconfigs" condition="int">0</parameter>
<parameter name="sub_steps" condition="int">1</parameter>
<parameter name="substeps" condition="int">1</parameter>
<parameter name="tau" condition="au">5.0000000000e-02</parameter>
<parameter name="time_step" condition="au">5.0000000000e-02</parameter>
<parameter name="timestep" condition="au">5.0000000000e-02</parameter>
<parameter name="use_drift" condition="string">yes</parameter>
<parameter name="usedrift" condition="string">yes</parameter>
<parameter name="walkers" condition="int">1</parameter>
<parameter name="warmup_steps" condition="int">1000</parameter>
<parameter name="warmupsteps" condition="int">1000</parameter>
  DumpConfig==false Nothing (configurations, state) will be saved.
  Walker Samples are dumped every 1 steps.
</vmc>
  Set drift_modifier UNR parameter a = 1.0000000000e+00
 Using QMCCostFunction::QMCCostFunction
 Using Default Cost Function: Cost = <|E-E_ff|^2>
  Set drift_modifier UNR parameter a = 1.0000000000e+00
  Adding a default LocalEnergyEstimator for the MainEstimator 
Doing hybrid run
This is methodName: descent
<optimization-report>
<vmc stage="main" blocks="100">
  Initial partition of walkers 0 1 

  Using Particle by Particle moves
  Walker moves with drift
  Total Sample Size   =20000
  Walker distribution on root = 0 1 
===== Memory Usage after the buffer registration =====
Available memory on node 0, free + buffers : 0 MB
Memory footprint by rank 0 on node 0       : 0 MB
==================================================
  Anonymous Buffer size per walker : 1704 Bytes.
MEMORY increase 0 MB VMC::resetRun
====================================================
  SimpleFixedNodeBranch::finalize after a VMC block
    QMC counter        = 0
    time step          = 0.05
    reference energy   = -2.23042
    reference variance = 0.567143
====================================================
  Execution time = 8.3422e-02
</vmc>
<opt stage="setup">
  <log>
   Reading configurations from h5FileRoot hybrid_ref.s000
  QMCCostFunction is created with 1 threads.
  Using Nonlocal PP in Opt: no
   Number of samples loaded to each thread : 5000 
  VMC Eavg = -2.0420e+00
  VMC Evar = 1.9396e-01
  Total weights = 2.0000e+04
  Execution time = 5.1869e-02
  </log>
</opt>
<opt stage="main" walkers="20000">
  <log>
entering engine_start function
<optimization-report>
<vmc stage="main" blocks="100">
  Cannot make clones again. Use existing 1 clones
  Initial partition of walkers 0 1 
  Using Particle by Particle moves
  Walker moves with drift
  Total Sample Size   =20000
  Walker distribution on root = 0 1 
===== Memory Usage after the buffer registration =====
Available memory on node 0, free + buffers : 0 MB
Memory footprint by rank 0 on node 0       : 0 MB
==================================================
====================================================
  SimpleFixedNodeBranch::finalize after a VMC block
    QMC counter        = 0
    time step          = 0.05
    reference energy   = -1.95362
    reference variance = 0.307478
====================================================
  Execution time = 6.3960e-02
</vmc>
<opt stage="setup">
  <log>
     Reading configurations from h5FileRoot hybrid_ref.s000
  Using Nonlocal PP in Opt: no
   Number of samples loaded to each thread : 5000 
  VMC Eavg = -2.0527e+00
  VMC Evar = 1.7712e-01
  Total weights = 2.0000e+04
e_sum: -4.1055e+04
w_sum: 2.0000e+04
e_avg: -2.0527e+00
eSquare_sum: 8.7818e+04
eSquare_avg: 4.3909e+00
Parameter # 0 Hamiltonian term: 1.3171e+00
Parameter # 0 Overlap term: -7.0636e-01
Parameter # 1 Hamiltonian term: -5.6488e-04
Parameter # 1 Overlap term: -1.1661e-03
Parameter # 2 Hamiltonian term: 3.6834e-02
Parameter # 2 Overlap term: -1.9885e-02
Parameter # 3 Hamiltonian term: 2.1595e-01
Parameter # 3 Overlap term: -1.1268e-01
Parameter # 4 Hamiltonian term: 5.2527e-01
Parameter # 4 Overlap term: -2.8314e-01
Parameter # 5 Hamiltonian term: 7.7679e-01
Parameter # 5 Overlap term: -3.7355e-01
Parameter # 6 Hamiltonian term: 7.8194e-01
Parameter # 6 Overlap term: -3.5068e-01
Parameter # 7 Hamiltonian term: 7.0311e-01
Parameter # 7 Overlap term: -3.4392e-01
Parameter # 8 Hamiltonian term: 5.7459e-01
Parameter # 8 Overlap term: -2.8783e-01
Parameter # 9 Hamiltonian term: 3.3167e-01
Parameter # 9 Overlap term: -1.5570e-01
Parameter # 10 Hamiltonian term: 1.1437e-01
Parameter # 10 Overlap term: -5.5917e-02
Parameter # 11 Hamiltonian term: 6.2698e-02
Parameter # 11 Overlap term: -3.1119e-02
Parameter # 12 Hamiltonian term: 4.3466e-01
Parameter # 12 Overlap term: -2.2699e-01
Parameter # 13 Hamiltonian term: 1.1515e+00
Parameter # 13 Overlap term: -5.5723e-01
Parameter # 14 Hamiltonian term: 1.6521e+00
Parameter # 14 Overlap term: -7.8585e-01
Parameter # 15 Hamiltonian term: 1.4748e+00
Parameter # 15 Overlap term: -7.4527e-01
Parameter # 16 Hamiltonian term: 1.0970e+00
Parameter # 16 Overlap term: -5.2357e-01
Parameter # 17 Hamiltonian term: 9.0413e-01
Parameter # 17 Overlap term: -4.3847e-01
Parameter # 18 Hamiltonian term: 7.4564e-01
Parameter # 18 Overlap term: -3.7479e-01
Parameter # 19 Hamiltonian term: 4.4885e-01
Parameter # 19 Overlap term: -2.0867e-01
Parameter # 20 Hamiltonian term: 1.7324e-01
Parameter # 20 Overlap term: -7.7431e-02
Parameter # 21 Hamiltonian term: 2.8187e-01
Parameter # 21 Overlap term: -1.4761e-01
Parameter # 22 Hamiltonian term: 1.4233e+00
Parameter # 22 Overlap term: -7.1013e-01
Parameter # 23 Hamiltonian term: 2.4597e+00
Parameter # 23 Overlap term: -1.2001e+00
Parameter # 24 Hamiltonian term: 2.6826e+00
Parameter # 24 Overlap term: -1.3322e+00
Parameter # 25 Hamiltonian term: 2.6891e+00
Parameter # 25 Overlap term: -1.3366e+00
Parameter # 26 Hamiltonian term: 3.0138e+00
Parameter # 26 Overlap term: -1.3972e+00
Parameter # 27 Hamiltonian term: 3.2056e+00
Parameter # 27 Overlap term: -1.5692e+00
Parameter # 28 Hamiltonian term: 3.2770e+00
Parameter # 28 Overlap term: -1.5686e+00
Parameter # 29 Hamiltonian term: 2.4143e+00
Parameter # 29 Overlap term: -1.2771e+00
Parameter # 30 Hamiltonian term: 1.7807e+00
Parameter # 30 Overlap term: -8.4480e-01
  Execution time = 5.9397e-02
  </log>
</opt>
<opt stage="main" walkers="20000">
  <log>
Number of Parameters: 31
Parameter Type step sizes:  TJF_2Body_eta=1.0000e-02 TJF_1Body_eta=1.0000e-02 F_eta=1.0000e-03 CI_eta=1.0000e-01 Orb_eta=1.0000e-03
Using RMSprop
  Execution time = 1.2347e-01
  </log>
  <optVariables href="hybrid_ref.s000.opt.xml">
CSFcoeff_1 -4.939993e-01                3 1 ON  0
uu_0       5.680768e-01                 1 1 ON  1
uu_1       3.699935e-01                 1 1 ON  2
uu_2       2.111899e-01                 1 1 ON  3
uu_3       9.379519e-02                 1 1 ON  4
uu_4       5.077031e-03                 1 1 ON  5
uu_5       -3.455138e-02                1 1 ON  6
uu_6       -2.478460e-02                1 1 ON  7
uu_7       8.928674e-03                 1 1 ON  8
uu_8       3.739461e-02                 1 1 ON  9
uu_9       2.980444e-02                 1 1 ON  10
ud_0       9.168252e-01                 1 1 ON  11
ud_1       5.762882e-01                 1 1 ON  12
ud_2       3.463923e-01                 1 1 ON  13
ud_3       1.888837e-01                 1 1 ON  14
ud_4       8.857669e-02                 1 1 ON  15
ud_5       3.437685e-02                 1 1 ON  16
ud_6       3.700828e-02                 1 1 ON  17
ud_7       6.402606e-02                 1 1 ON  18
ud_8       7.679522e-02                 1 1 ON  19
ud_9       5.800257e-02                 1 1 ON  20
eH_0       1.582283e-02                 1 1 ON  21
eH_1       3.004511e-02                 1 1 ON  22
eH_2       -1.132264e-01                1 1 ON  23
eH_3       -9.348078e-02                1 1 ON  24
eH_4       -1.052243e-01                1 1 ON  25
eH_5       -8.111313e-02                1 1 ON  26
eH_6       -3.608847e-02                1 1 ON  27
eH_7       -7.968086e-03                1 1 ON  28
eH_8       1.248888e-02                 1 1 ON  29
eH_9       3.919087e-03                 1 1 ON  30
  </optVariables>
   Restore the number of walkers to 1, removing 0 walkers.
</opt>
</optimization-report>
Finished a hybrid step
  QMC Execution time = 0.2597 secs

=========================================================
  Start QMCFixedSampleLinearOptimize
  File Root hybrid_ref.s001 append = no 
=========================================================
  Skip QMCDriver::putQMCInfo 
  Resetting Properties of the walkers 1 x 13
nTargetPopulation: 2e+04
nTargetSamples: 0
W.numSamples(): 5000

=========================================================
  Start VMC
  File Root hybrid_ref.s001 append = no 
=========================================================
Using existing walkers 
  Resetting Properties of the walkers 1 x 13

<vmc function="put">
  qmc_counter=1  my_counter=0
  time step      = 0.05
  blocks         = 100
  steps          = 50
  substeps       = 1
  current        = 0
  target samples = 2e+04
  walkers/mpi    = 1

  stepsbetweensamples = 1
<parameter name="blocks" condition="int">100</parameter>
<parameter name="blocks_between_recompute" condition="int">0</parameter>
<parameter name="check_properties" condition="int">100</parameter>
<parameter name="checkproperties" condition="int">100</parameter>
<parameter name="current" condition="int">0</parameter>
<parameter name="dmcwalkersperthread" condition="real">5000</parameter>
<parameter name="maxcpusecs" condition="real">3.6e+05</parameter>
<parameter name="record_configs" condition="int">0</parameter>
<parameter name="record_walkers" condition="int">1</parameter>
<parameter name="recordconfigs" condition="int">0</parameter>
<parameter name="recordwalkers" condition="int">1</parameter>
<parameter name="rewind" condition="int">0</parameter>
<parameter name="samples" condition="real">2e+04</parameter>
<parameter name="samplesperthread" condition="real">5000</parameter>
<parameter name="steps" condition="int">50</parameter>
<parameter name="stepsbetweensamples" condition="int">1</parameter>
<parameter name="store_configs" condition="int">0</parameter>
<parameter name="storeconfigs" condition="int">0</parameter>
<parameter name="sub_steps" condition="int">1</parameter>
<parameter name="substeps" condition="int">1</parameter>
<parameter name="tau" condition="au">0.05</parameter>
<parameter name="time_step" condition="au">0.05</parameter>
<parameter name="timestep" condition="au">0.05</parameter>
<parameter name="use_drift" condition="string">yes</parameter>
<parameter name="usedrift" condition="string">yes</parameter>
<parameter name="walkers" condition="int">1</parameter>
<parameter name="warmup_steps" condition="int">1000</parameter>
<parameter name="warmupsteps" condition="int">1000</parameter>
  DumpConfig==false Nothing (configurations, state) will be saved.
  Walker Samples are dumped every 1 steps.
</vmc>
    Restarting, cummulative properties:
      energy     = -2.092
      variance   = 0
      r2accepted = 1e-10
      r2proposed = 1e-10
  Set drift_modifier UNR parameter a = 1
 Using QMCCostFunction::QMCCostFunction
 Using Default Cost Function: Cost = <|E-E_ff|^2>
  Set drift_modifier UNR parameter a = 1.0000e+00
Doing hybrid run
This is methodName: descent
<optimization-report>
<vmc stage="main" blocks="100">
  Cannot make clones again. Use existing 1 clones
  Initial partition of walkers 0 1 

  Using Particle by Particle moves
  Walker moves with drift
  Total Sample Size   =20000
  Walker distribution on root = 0 1 
===== Memory Usage after the buffer registration =====
Available memory on node 0, free + buffers : 0 MB
Memory footprint by rank 0 on node 0       : 0 MB
==================================================
  Anonymous Buffer size per walker : 1704 Bytes.
MEMORY increase 0 MB VMC::resetRun
====================================================
  SimpleFixedNodeBranch::finalize after a VMC block
    QMC counter        = 1
    time step          = 0.05
    reference energy   = -1.83285
    reference variance = 0.0268225
====================================================
  Execution time = 8.2274e-02
</vmc>
<opt stage="setup">
  <log>
   Reading configurations from h5FileRoot hybrid_ref.s001
  QMCCostFunction is created with 1 threads.
  Using Nonlocal PP in Opt: no
   Number of samples loaded to each thread : 5000 
  VMC Eavg = -1.9168e+00
  VMC Evar = 3.9662e-01
  Total weights = 2.0000e+04
  Execution time = 5.5739e-02
  </log>
</opt>
<opt stage="main" walkers="20000">
  <log>
entering engine_start function
<optimization-report>
<vmc stage="main" blocks="100">
  Cannot make clones again. Use existing 1 clones
  Initial partition of walkers 0 1 
  Using Particle by Particle moves
  Walker moves with drift
  Total Sample Size   =20000
  Walker distribution on root = 0 1 
===== Memory Usage after the buffer registration =====
Available memory on node 0, free + buffers : 0 MB
Memory footprint by rank 0 on node 0       : 0 MB
==================================================
====================================================
  SimpleFixedNodeBranch::finalize after a VMC block
    QMC counter        = 1
    time step          = 0.05
    reference energy   = -2.03488
    reference variance = 0.0982046
====================================================
  Execution time = 6.2560e-02
</vmc>
<opt stage="setup">
  <log>
     Reading configurations from h5FileRoot hybrid_ref.s001
  Using Nonlocal PP in Opt: no
   Number of samples loaded to each thread : 5000 
  VMC Eavg = -2.0804e+00
  VMC Evar = 1.7097e-01
  Total weights = 2.0000e+04
e_sum: -4.1607e+04
w_sum: 2.0000e+04
e_avg: -2.0804e+00
eSquare_sum: 8.9978e+04
eSquare_avg: 4.4989e+00
Parameter # 0 Hamiltonian term: 1.2732e+00
Parameter # 0 Overlap term: -6.6935e-01
Parameter # 1 Hamiltonian term: 2.5619e-03
Parameter # 1 Overlap term: -4.8788e-04
Parameter # 2 Hamiltonian term: 2.7097e-02
Parameter # 2 Overlap term: -1.3465e-02
Parameter # 3 Hamiltonian term: 1.6989e-01
Parameter # 3 Overlap term: -8.8697e-02
Parameter # 4 Hamiltonian term: 4.9589e-01
Parameter # 4 Overlap term: -2.4490e-01
Parameter # 5 Hamiltonian term: 7.7428e-01
Parameter # 5 Overlap term: -3.6824e-01
Parameter # 6 Hamiltonian term: 8.0146e-01
Parameter # 6 Overlap term: -3.9403e-01
Parameter # 7 Hamiltonian term: 7.7046e-01
Parameter # 7 Overlap term: -3.7268e-01
Parameter # 8 Hamiltonian term: 6.0697e-01
Parameter # 8 Overlap term: -2.8551e-01
Parameter # 9 Hamiltonian term: 3.4527e-01
Parameter # 9 Overlap term: -1.5281e-01
Parameter # 10 Hamiltonian term: 1.2260e-01
Parameter # 10 Overlap term: -5.9162e-02
Parameter # 11 Hamiltonian term: 6.5103e-02
Parameter # 11 Overlap term: -2.8489e-02
Parameter # 12 Hamiltonian term: 4.5207e-01
Parameter # 12 Overlap term: -2.1774e-01
Parameter # 13 Hamiltonian term: 1.1818e+00
Parameter # 13 Overlap term: -5.6720e-01
Parameter # 14 Hamiltonian term: 1.6435e+00
Parameter # 14 Overlap term: -8.1481e-01
Parameter # 15 Hamiltonian term: 1.5498e+00
Parameter # 15 Overlap term: -7.3499e-01
Parameter # 16 Hamiltonian term: 1.0936e+00
Parameter # 16 Overlap term: -5.1503e-01
Parameter # 17 Hamiltonian term: 8.5622e-01
Parameter # 17 Overlap term: -4.2812e-01
Parameter # 18 Hamiltonian term: 7.5268e-01
Parameter # 18 Overlap term: -3.5235e-01
Parameter # 19 Hamiltonian term: 4.7136e-01
Parameter # 19 Overlap term: -2.0955e-01
Parameter # 20 Hamiltonian term: 1.7790e-01
Parameter # 20 Overlap term: -9.4293e-02
Parameter # 21 Hamiltonian term: 2.9658e-01
Parameter # 21 Overlap term: -1.4555e-01
Parameter # 22 Hamiltonian term: 1.3706e+00
Parameter # 22 Overlap term: -7.0399e-01
Parameter # 23 Hamiltonian term: 2.4360e+00
Parameter # 23 Overlap term: -1.1817e+00
Parameter # 24 Hamiltonian term: 2.7973e+00
Parameter # 24 Overlap term: -1.2992e+00
Parameter # 25 Hamiltonian term: 2.8195e+00
Parameter # 25 Overlap term: -1.3328e+00
Parameter # 26 Hamiltonian term: 2.9352e+00
Parameter # 26 Overlap term: -1.4379e+00
Parameter # 27 Hamiltonian term: 3.2516e+00
Parameter # 27 Overlap term: -1.5952e+00
Parameter # 28 Hamiltonian term: 3.1963e+00
Parameter # 28 Overlap term: -1.5557e+00
Parameter # 29 Hamiltonian term: 2.6091e+00
Parameter # 29 Overlap term: -1.2226e+00
Parameter # 30 Hamiltonian term: 1.8111e+00
Parameter # 30 Overlap term: -8.3345e-01
  Execution time = 5.3728e-02
  </log>
</opt>
<opt stage="main" walkers="20000">
  <log>
Number of Parameters: 31
Parameter Type step sizes:  TJF_2Body_eta=1.0000e-02 TJF_1Body_eta=1.0000e-02 F_eta=1.0000e-03 CI_eta=1.0000e-01 Orb_eta=1.0000e-03
Using RMSprop
  Execution time = 1.1633e-01
  </log>
  <optVariables href="hybrid_ref.s001.opt.xml">
CSFcoeff_1 -3.959612e-01                3 1 ON  0
uu_0       5.617483e-01                 1 1 ON  1
uu_1       3.727798e-01                 1 1 ON  2
uu_2       2.222429e-01                 1 1 ON  3
uu_3       9.645221e-02                 1 1 ON  4
uu_4       -4.564845e-03                1 1 ON  5
uu_5       -3.061654e-02                1 1 ON  6
uu_6       -6.745119e-03                1 1 ON  7
uu_7       -6.338911e-04                1 1 ON  8
uu_8       1.527395e-02                 1 1 ON  9
uu_9       4.320213e-02                 1 1 ON  10
ud_0       8.854041e-01                 1 1 ON  11
ud_1       5.764720e-01                 1 1 ON  12
ud_2       3.435824e-01                 1 1 ON  13
ud_3       2.039769e-01                 1 1 ON  14
ud_4       8.368476e-02                 1 1 ON  15
ud_5       2.290078e-02                 1 1 ON  16
ud_6       7.170215e-02                 1 1 ON  17
ud_7       5.410278e-02                 1 1 ON  18
ud_8       5.855941e-02                 1 1 ON  19
ud_9       7.249101e-02                 1 1 ON  20
eH_0       1.929250e-02                 1 1 ON  21
eH_1       5.457878e-02                 1 1 ON  22
eH_2       -8.069353e-02                1 1 ON  23
eH_3       -1.127985e-01                1 1 ON  24
eH_4       -1.156353e-01                1 1 ON  25
eH_5       -7.561020e-02                1 1 ON  26
eH_6       -6.021512e-03                1 1 ON  27
eH_7       7.294447e-04                 1 1 ON  28
eH_8       7.464764e-03                 1 1 ON  29
eH_9       -1.362384e-02                1 1 ON  30
  </optVariables>
   Restore the number of walkers to 1, removing 0 walkers.
</opt>
</optimization-report>
Finished a hybrid step
  QMC Execution time = 0.2551 secs

=========================================================
  Start QMCFixedSampleLinearOptimize
  File Root hybrid_ref.s002 append = no 
=========================================================
  Skip QMCDriver::putQMCInfo 
  Resetting Properties of the walkers 1 x 13
nTargetPopulation: 2e+04
nTargetSamples: 0
W.numSamples(): 5000

=========================================================
  Start VMC
  File Root hybrid_ref.s002 append = no 
=========================================================
Using existing walkers 
  Resetting Properties of the walkers 1 x 13

<vmc function="put">
  qmc_counter=2  my_counter=0
  time step      = 0.05
  blocks         = 100
  steps          = 50
  substeps       = 1
  current        = 0
  target samples = 2e+04
  walkers/mpi    = 1

  stepsbetweensamples = 1
<parameter name="blocks" condition="int">100</parameter>
<parameter name="blocks_between_recompute" condition="int">0</parameter>
<parameter name="check_properties" condition="int">100</parameter>
<parameter name="checkproperties" condition="int">100</parameter>
<parameter name="current" condition="int">0</parameter>
<parameter name="dmcwalkersperthread" condition="real">5000</parameter>
<parameter name="maxcpusecs" condition="real">3.6e+05</parameter>
<parameter name="record_configs" condition="int">0</parameter>
<parameter name="record_walkers" condition="int">1</parameter>
<parameter name="recordconfigs" condition="int">0</parameter>
<parameter name="recordwalkers" condition="int">1</parameter>
<parameter name="rewind" condition="int">0</parameter>
<parameter name="samples" condition="real">2e+04</parameter>
<parameter name="samplesperthread" condition="real">5000</parameter>
<parameter name="steps" condition="int">50</parameter>
<parameter name="stepsbetweensamples" condition="int">1</parameter>
<parameter name="store_configs" condition="int">0</parameter>
<parameter name="storeconfigs" condition="int">0</parameter>
<parameter name="sub_steps" condition="int">1</parameter>
<parameter name="substeps" condition="int">1</parameter>
<parameter name="tau" condition="au">0.05</parameter>
<parameter name="time_step" condition="au">0.05</parameter>
<parameter name="timestep" condition="au">0.05</parameter>
<parameter name="use_drift" condition="string">yes</parameter>
<parameter name="usedrift" condition="string">yes</parameter>
<parameter name="walkers" condition="int">1</parameter>
<parameter name="warmup_steps" condition="int">1000</parameter>
<parameter name="warmupsteps" condition="int">1000</parameter>
  DumpConfig==false Nothing (configurations, state) will be saved.
  Walker Samples are dumped every 1 steps.
</vmc>
    Restarting, cummulative properties:
      energy     = -2.013
      variance   = 0
      r2accepted = 1e-10
      r2proposed = 1e-10
  Set drift_modifier UNR parameter a = 1
 Using QMCCostFunction::QMCCostFunction
 Using Default Cost Function: Cost = <|E-E_ff|^2>
  Set drift_modifier UNR parameter a = 1.0000e+00
Doing hybrid run
This is methodName: descent
<optimization-report>
<vmc stage="main" blocks="100">
  Cannot make clones again. Use existing 1 clones
  Initial partition of walkers 0 1 

  Using Particle by Particle moves
  Walker moves with drift
  Total Sample Size   =20000
  Walker distribution on root = 0 1 
===== Memory Usage after the buffer registration =====
Available memory on node 0, free + buffers : 0 MB
Memory footprint by rank 0 on node 0       : 0 MB
==================================================
  Anonymous Buffer size per walker : 1704 Bytes.
MEMORY increase 0 MB VMC::resetRun
====================================================
  SimpleFixedNodeBranch::finalize after a VMC block
    QMC counter        = 2
    time step          = 0.05
    reference energy   = -2.30193
    reference variance = 0.290453
====================================================
  Execution time = 7.1338e-02
</vmc>
<opt stage="setup">
  <log>
   Reading configurations from h5FileRoot hybrid_ref.s002
  QMCCostFunction is created with 1 threads.
  Using Nonlocal PP in Opt: no
   Number of samples loaded to each thread : 5000 
  VMC Eavg = -2.0613e+00
  VMC Evar = 2.7659e-01
  Total weights = 2.0000e+04
  Execution time = 5.3873e-02
  </log>
</opt>
<opt stage="main" walkers="20000">
  <log>
entering engine_start function
<optimization-report>
<vmc stage="main" blocks="100">
  Cannot make clones again. Use existing 1 clones
  Initial partition of walkers 0 1 
  Using Particle by Particle moves
  Walker moves with drift
  Total Sample Size   =20000
  Walker distribution on root = 0 1 
===== Memory Usage after the buffer registration =====
Available memory on node 0, free + buffers : 0 MB
Memory footprint by rank 0 on node 0       : 0 MB
==================================================
====================================================
  SimpleFixedNodeBranch::finalize after a VMC block
    QMC counter        = 2
    time step          = 0.05
    reference energy   = -2.20296
    reference variance = 0.189851
====================================================
  Execution time = 6.1739e-02
</vmc>
<opt stage="setup">
  <log>
     Reading configurations from h5FileRoot hybrid_ref.s002
  Using Nonlocal PP in Opt: no
   Number of samples loaded to each thread : 5000 
  VMC Eavg = -2.0836e+00
  VMC Evar = 2.3026e-01
  Total weights = 2.0000e+04
e_sum: -4.1672e+04
w_sum: 2.0000e+04
e_avg: -2.0836e+00
eSquare_sum: 9.1433e+04
eSquare_avg: 4.5716e+00
Parameter # 0 Hamiltonian term: 1.3310e+00
Parameter # 0 Overlap term: -7.0574e-01
Parameter # 1 Hamiltonian term: 1.8060e-03
Parameter # 1 Overlap term: -8.6574e-04
Parameter # 2 Hamiltonian term: 2.6714e-02
Parameter # 2 Overlap term: -1.7611e-02
Parameter # 3 Hamiltonian term: 1.8724e-01
Parameter # 3 Overlap term: -9.6449e-02
Parameter # 4 Hamiltonian term: 5.1368e-01
Parameter # 4 Overlap term: -2.4572e-01
Parameter # 5 Hamiltonian term: 7.4178e-01
Parameter # 5 Overlap term: -3.5935e-01
Parameter # 6 Hamiltonian term: 7.7953e-01
Parameter # 6 Overlap term: -3.7374e-01
Parameter # 7 Hamiltonian term: 7.4604e-01
Parameter # 7 Overlap term: -3.5567e-01
Parameter # 8 Hamiltonian term: 6.3963e-01
Parameter # 8 Overlap term: -2.8408e-01
Parameter # 9 Hamiltonian term: 3.4673e-01
Parameter # 9 Overlap term: -1.6806e-01
Parameter # 10 Hamiltonian term: 1.2475e-01
Parameter # 10 Overlap term: -7.1163e-02
Parameter # 11 Hamiltonian term: 5.9868e-02
Parameter # 11 Overlap term: -3.0192e-02
Parameter # 12 Hamiltonian term: 4.5971e-01
Parameter # 12 Overlap term: -2.2487e-01
Parameter # 13 Hamiltonian term: 1.1780e+00
Parameter # 13 Overlap term: -5.6447e-01
Parameter # 14 Hamiltonian term: 1.6391e+00
Parameter # 14 Overlap term: -7.7057e-01
Parameter # 15 Hamiltonian term: 1.4928e+00
Parameter # 15 Overlap term: -7.1744e-01
Parameter # 16 Hamiltonian term: 1.1043e+00
Parameter # 16 Overlap term: -5.3532e-01
Parameter # 17 Hamiltonian term: 8.9680e-01
Parameter # 17 Overlap term: -4.3658e-01
Parameter # 18 Hamiltonian term: 7.6746e-01
Parameter # 18 Overlap term: -3.5952e-01
Parameter # 19 Hamiltonian term: 4.4236e-01
Parameter # 19 Overlap term: -2.1802e-01
Parameter # 20 Hamiltonian term: 1.9479e-01
Parameter # 20 Overlap term: -9.1999e-02
Parameter # 21 Hamiltonian term: 2.7182e-01
Parameter # 21 Overlap term: -1.3691e-01
Parameter # 22 Hamiltonian term: 1.4101e+00
Parameter # 22 Overlap term: -6.6579e-01
Parameter # 23 Hamiltonian term: 2.4373e+00
Parameter # 23 Overlap term: -1.1720e+00
Parameter # 24 Hamiltonian term: 2.7040e+00
Parameter # 24 Overlap term: -1.3686e+00
Parameter # 25 Hamiltonian term: 2.9167e+00
Parameter # 25 Overlap term: -1.3889e+00
Parameter # 26 Hamiltonian term: 2.9912e+00
Parameter # 26 Overlap term: -1.4157e+00
Parameter # 27 Hamiltonian term: 3.3021e+00
Parameter # 27 Overlap term: -1.5109e+00
Parameter # 28 Hamiltonian term: 2.9777e+00
Parameter # 28 Overlap term: -1.4982e+00
Parameter # 29 Hamiltonian term: 2.5669e+00
Parameter # 29 Overlap term: -1.2135e+00
Parameter # 30 Hamiltonian term: 1.7971e+00
Parameter # 30 Overlap term: -8.5322e-01
  Execution time = 5.3587e-02
  </log>
</opt>
<opt stage="main" walkers="20000">
  <log>
Number of Parameters: 31
Parameter Type step sizes:  TJF_2Body_eta=1.0000e-02 TJF_1Body_eta=1.0000e-02 F_eta=1.0000e-03 CI_eta=1.0000e-01 Orb_eta=1.0000e-03
Using RMSprop
  Execution time = 1.1537e-01
  </log>
  <optVariables href="hybrid_ref.s002.opt.xml">
CSFcoeff_1 -3.058571e-01                3 1 ON  0
uu_0       5.638386e-01                 1 1 ON  1
uu_1       3.966180e-01                 1 1 ON  2
uu_2       2.293093e-01                 1 1 ON  3
uu_3       9.506591e-02                 1 1 ON  4
uu_4       7.280585e-03                 1 1 ON  5
uu_5       -3.198138e-02                1 1 ON  6
uu_6       -3.037005e-02                1 1 ON  7
uu_7       -2.399396e-02                1 1 ON  8
uu_8       2.564120e-02                 1 1 ON  9
uu_9       7.625459e-02                 1 1 ON  10
ud_0       9.118108e-01                 1 1 ON  11
ud_1       5.800610e-01                 1 1 ON  12
ud_2       3.413811e-01                 1 1 ON  13
ud_3       1.889978e-01                 1 1 ON  14
ud_4       8.570299e-02                 1 1 ON  15
ud_5       3.293293e-02                 1 1 ON  16
ud_6       7.324676e-02                 1 1 ON  17
ud_7       4.783517e-02                 1 1 ON  18
ud_8       7.120026e-02                 1 1 ON  19
ud_9       6.506671e-02                 1 1 ON  20
eH_0       2.625110e-02                 1 1 ON  21
eH_1       3.995422e-02                 1 1 ON  22
eH_2       -8.418083e-02                1 1 ON  23
eH_3       -8.211434e-02                1 1 ON  24
eH_4       -1.175232e-01                1 1 ON  25
eH_5       -8.087328e-02                1 1 ON  26
eH_6       -4.959794e-02                1 1 ON  27
eH_7       2.249498e-02                 1 1 ON  28
eH_8       6.317898e-03                 1 1 ON  29
eH_9       -1.245924e-02                1 1 ON  30
  </optVariables>
   Restore the number of walkers to 1, removing 0 walkers.
</opt>
</optimization-report>
Finished a hybrid step
  QMC Execution time = 0.2413 secs

=========================================================
  Start QMCFixedSampleLinearOptimize
  File Root hybrid_ref.s003 append = no 
=========================================================
  Skip QMCDriver::putQMCInfo 
  Resetting Properties of the walkers 1 x 13
nTargetPopulation: 2e+04
nTargetSamples: 0
W.numSamples(): 5000

=========================================================
  Start VMC
  File Root hybrid_ref.s003 append = no 
=========================================================
Using existing walkers 
  Resetting Properties of the walkers 1 x 13

<vmc function="put">
  qmc_counter=3  my_counter=0
  time step      = 0.05
  blocks         = 100
  steps          = 50
  substeps       = 1
  current        = 0
  target samples = 2e+04
  walkers/mpi    = 1

  stepsbetweensamples = 1
<parameter name="blocks" condition="int">100</parameter>
<parameter name="blocks_between_recompute" condition="int">0</parameter>
<parameter name="check_properties" condition="int">100</parameter>
<parameter name="checkproperties" condition="int">100</parameter>
<parameter name="current" condition="int">0</parameter>
<parameter name="dmcwalkersperthread" condition="real">5000</parameter>
<parameter name="maxcpusecs" condition="real">3.6e+05</parameter>
<parameter name="record_configs" condition="int">0</parameter>
<parameter name="record_walkers" condition="int">1</parameter>
<parameter name="recordconfigs" condition="int">0</parameter>
<parameter name="recordwalkers" condition="int">1</parameter>
<parameter name="rewind" condition="int">0</parameter>
<parameter name="samples" condition="real">2e+04</parameter>
<parameter name="samplesperthread" condition="real">5000</parameter>
<parameter name="steps" condition="int">50</parameter>
<parameter name="stepsbetweensamples" condition="int">1</parameter>
<parameter name="store_configs" condition="int">0</parameter>
<parameter name="storeconfigs" condition="int">0</parameter>
<parameter name="sub_steps" condition="int">1</parameter>
<parameter name="substeps" condition="int">1</parameter>
<parameter name="tau" condition="au">0.05</parameter>
<parameter name="time_step" condition="au">0.05</parameter>
<parameter name="timestep" condition="au">0.05</parameter>
<parameter name="use_drift" condition="string">yes</parameter>
<parameter name="usedrift" condition="string">yes</parameter>
<parameter name="walkers" condition="int">1</parameter>
<parameter name="warmup_steps" condition="int">1000</parameter>
<parameter name="warmupsteps" condition="int">1000</parameter>
  DumpConfig==false Nothing (configurations, state) will be saved.
  Walker Samples are dumped every 1 steps.
</vmc>
    Restarting, cummulative properties:
      energy     = -2.093
      variance   = 0
      r2accepted = 1e-10
      r2proposed = 1e-10
  Set drift_modifier UNR parameter a = 1
 Using QMCCostFunction::QMCCostFunction
 Using Default Cost Function: Cost = <|E-E_ff|^2>
  Set drift_modifier UNR parameter a = 1.0000e+00
Doing hybrid run
This is methodName: descent
<optimization-report>
<vmc stage="main" blocks="100">
  Cannot make clones again. Use existing 1 clones
  Initial partition of walkers 0 1 

  Using Particle by Particle moves
  Walker moves with drift
  Total Sample Size   =20000
  Walker distribution on root = 0 1 
===== Memory Usage after the buffer registration =====
Available memory on node 0, free + buffers : 0 MB
Memory footprint by rank 0 on node 0       : 0 MB
==================================================
  Anonymous Buffer size per walker : 1704 Bytes.
MEMORY increase 0 MB VMC::resetRun
====================================================
  SimpleFixedNodeBranch::finalize after a VMC block
    QMC counter        = 3
    time step          = 0.05
    reference energy   = -1.85204
    reference variance = 0.0639465
====================================================
  Execution time = 7.3946e-02
</vmc>
<opt stage="setup">
  <log>
   Reading configurations from h5FileRoot hybrid_ref.s003
  QMCCostFunction is created with 1 threads.
  Using Nonlocal PP in Opt: no
   Number of samples loaded to each thread : 5000 
  VMC Eavg = -2.0916e+00
  VMC Evar = 2.2232e-01
  Total weights = 2.0000e+04
  Execution time = 5.4279e-02
  </log>
</opt>
<opt stage="main" walkers="20000">
  <log>
entering engine_start function
<optimization-report>
<vmc stage="main" blocks="100">
  Cannot make clones again. Use existing 1 clones
  Initial partition of walkers 0 1 
  Using Particle by Particle moves
  Walker moves with drift
  Total Sample Size   =20000
  Walker distribution on root = 0 1 
===== Memory Usage after the buffer registration =====
Available memory on node 0, free + buffers : 0 MB
Memory footprint by rank 0 on node 0       : 0 MB
==================================================
====================================================
  SimpleFixedNodeBranch::finalize after a VMC block
    QMC counter        = 3
    time step          = 0.05
    reference energy   = -2.21609
    reference variance = 0.0132926
====================================================
  Execution time = 6.2886e-02
</vmc>
<opt stage="setup">
  <log>
     Reading configurations from h5FileRoot hybrid_ref.s003
  Using Nonlocal PP in Opt: no
   Number of samples loaded to each thread : 5000 
  VMC Eavg = -2.1119e+00
  VMC Evar = 2.0823e-01
  Total weights = 2.0000e+04
e_sum: -4.2239e+04
w_sum: 2.0000e+04
e_avg: -2.1119e+00
eSquare_sum: 9.3370e+04
eSquare_avg: 4.6685e+00
Parameter # 0 Hamiltonian term: 1.3157e+00
Parameter # 0 Overlap term: -6.7967e-01
Parameter # 1 Hamiltonian term: 1.1834e-03
Parameter # 1 Overlap term: -5.7621e-04
Parameter # 2 Hamiltonian term: 2.4136e-02
Parameter # 2 Overlap term: -1.2475e-02
Parameter # 3 Hamiltonian term: 1.5985e-01
Parameter # 3 Overlap term: -7.6378e-02
Parameter # 4 Hamiltonian term: 4.7552e-01
Parameter # 4 Overlap term: -2.1361e-01
Parameter # 5 Hamiltonian term: 7.3058e-01
Parameter # 5 Overlap term: -3.4561e-01
Parameter # 6 Hamiltonian term: 8.1383e-01
Parameter # 6 Overlap term: -3.9481e-01
Parameter # 7 Hamiltonian term: 8.1633e-01
Parameter # 7 Overlap term: -3.8801e-01
Parameter # 8 Hamiltonian term: 6.4423e-01
Parameter # 8 Overlap term: -3.0847e-01
Parameter # 9 Hamiltonian term: 3.6974e-01
Parameter # 9 Overlap term: -1.6837e-01
Parameter # 10 Hamiltonian term: 1.3713e-01
Parameter # 10 Overlap term: -6.6590e-02
Parameter # 11 Hamiltonian term: 5.9338e-02
Parameter # 11 Overlap term: -3.0673e-02
Parameter # 12 Hamiltonian term: 4.9724e-01
Parameter # 12 Overlap term: -2.2327e-01
Parameter # 13 Hamiltonian term: 1.2026e+00
Parameter # 13 Overlap term: -5.6662e-01
Parameter # 14 Hamiltonian term: 1.6219e+00
Parameter # 14 Overlap term: -7.7803e-01
Parameter # 15 Hamiltonian term: 1.4911e+00
Parameter # 15 Overlap term: -7.0079e-01
Parameter # 16 Hamiltonian term: 1.1324e+00
Parameter # 16 Overlap term: -5.1533e-01
Parameter # 17 Hamiltonian term: 9.3972e-01
Parameter # 17 Overlap term: -4.4313e-01
Parameter # 18 Hamiltonian term: 7.7406e-01
Parameter # 18 Overlap term: -3.8822e-01
Parameter # 19 Hamiltonian term: 4.5823e-01
Parameter # 19 Overlap term: -2.3287e-01
Parameter # 20 Hamiltonian term: 2.0482e-01
Parameter # 20 Overlap term: -8.8551e-02
Parameter # 21 Hamiltonian term: 3.0800e-01
Parameter # 21 Overlap term: -1.3961e-01
Parameter # 22 Hamiltonian term: 1.3079e+00
Parameter # 22 Overlap term: -6.7976e-01
Parameter # 23 Hamiltonian term: 2.4586e+00
Parameter # 23 Overlap term: -1.1458e+00
Parameter # 24 Hamiltonian term: 2.8834e+00
Parameter # 24 Overlap term: -1.2992e+00
Parameter # 25 Hamiltonian term: 2.9054e+00
Parameter # 25 Overlap term: -1.3682e+00
Parameter # 26 Hamiltonian term: 3.0280e+00
Parameter # 26 Overlap term: -1.4389e+00
Parameter # 27 Hamiltonian term: 3.1933e+00
Parameter # 27 Overlap term: -1.5359e+00
Parameter # 28 Hamiltonian term: 3.1113e+00
Parameter # 28 Overlap term: -1.4716e+00
Parameter # 29 Hamiltonian term: 2.5063e+00
Parameter # 29 Overlap term: -1.1973e+00
Parameter # 30 Hamiltonian term: 1.8967e+00
Parameter # 30 Overlap term: -8.6433e-01
  Execution time = 5.3716e-02
  </log>
</opt>
<opt stage="main" walkers="20000">
  <log>
Number of Parameters: 31
Parameter Type step sizes:  TJF_2Body_eta=1.0000e-02 TJF_1Body_eta=1.0000e-02 F_eta=1.0000e-03 CI_eta=1.0000e-01 Orb_eta=1.0000e-03
Using RMSprop
  Execution time = 1.1665e-01
  </log>
  <optVariables href="hybrid_ref.s003.opt.xml">
CSFcoeff_1 -2.447550e-01                3 1 ON  0
uu_0       5.639941e-01                 1 1 ON  1
uu_1       3.932667e-01                 1 1 ON  2
uu_2       2.266004e-01                 1 1 ON  3
uu_3       8.935630e-02                 1 1 ON  4
uu_4       3.289662e-03                 1 1 ON  5
uu_5       -2.757475e-02                1 1 ON  6
uu_6       -1.308188e-02                1 1 ON  7
uu_7       -1.026978e-02                1 1 ON  8
uu_8       1.251452e-02                 1 1 ON  9
uu_9       6.840182e-02                 1 1 ON  10
ud_0       9.290948e-01                 1 1 ON  11
ud_1       5.680329e-01                 1 1 ON  12
ud_2       3.323682e-01                 1 1 ON  13
ud_3       1.990963e-01                 1 1 ON  14
ud_4       8.279892e-02                 1 1 ON  15
ud_5       9.840040e-03                 1 1 ON  16
ud_6       6.448576e-02                 1 1 ON  17
ud_7       7.173982e-02                 1 1 ON  18
ud_8       8.578498e-02                 1 1 ON  19
ud_9       5.164439e-02                 1 1 ON  20
eH_0       1.525208e-02                 1 1 ON  21
eH_1       6.834126e-02                 1 1 ON  22
eH_2       -1.184691e-01                1 1 ON  23
eH_3       -1.109418e-01                1 1 ON  24
eH_4       -1.193588e-01                1 1 ON  25
eH_5       -7.854023e-02                1 1 ON  26
eH_6       -2.662247e-02                1 1 ON  27
eH_7       1.302144e-02                 1 1 ON  28
eH_8       8.661102e-03                 1 1 ON  29
eH_9       -2.702770e-02                1 1 ON  30
  </optVariables>
   Restore the number of walkers to 1, removing 0 walkers.
</opt>
</optimization-report>
Finished a hybrid step
  QMC Execution time = 0.2457 secs

=========================================================
  Start QMCFixedSampleLinearOptimize
  File Root hybrid_ref.s004 append = no 
=========================================================
  Skip QMCDriver::putQMCInfo 
  Resetting Properties of the walkers 1 x 13
nTargetPopulation: 2e+04
nTargetSamples: 0
W.numSamples(): 5000

=========================================================
  Start VMC
  File Root hybrid_ref.s004 append = no 
=========================================================
Using existing walkers 
  Resetting Properties of the walkers 1 x 13

<vmc function="put">
  qmc_counter=4  my_counter=0
  time step      = 0.05
  blocks         = 100
  steps          = 50
  substeps       = 1
  current        = 0
  target samples = 2e+04
  walkers/mpi    = 1

  stepsbetweensamples = 1
<parameter name="blocks" condition="int">100</parameter>
<parameter name="blocks_between_recompute" condition="int">0</parameter>
<parameter name="check_properties" condition="int">100</parameter>
<parameter name="checkproperties" condition="int">100</parameter>
<parameter name="current" condition="int">0</parameter>
<parameter name="dmcwalkersperthread" condition="real">5000</parameter>
<parameter name="maxcpusecs" condition="real">3.6e+05</parameter>
<parameter name="record_configs" condition="int">0</parameter>
<parameter name="record_walkers" condition="int">1</parameter>
<parameter name="recordconfigs" condition="int">0</parameter>
<parameter name="recordwalkers" condition="int">1</parameter>
<parameter name="rewind" condition="int">0</parameter>
<parameter name="samples" condition="real">2e+04</parameter>
<parameter name="samplesperthread" condition="real">5000</parameter>
<parameter name="steps" condition="int">50</parameter>
<parameter name="stepsbetweensamples" condition="int">1</parameter>
<parameter name="store_configs" condition="int">0</parameter>
<parameter name="storeconfigs" condition="int">0</parameter>
<parameter name="sub_steps" condition="int">1</parameter>
<parameter name="substeps" condition="int">1</parameter>
<parameter name="tau" condition="au">0.05</parameter>
<parameter name="time_step" condition="au">0.05</parameter>
<parameter name="timestep" condition="au">0.05</parameter>
<parameter name="use_drift" condition="string">yes</parameter>
<parameter name="usedrift" condition="string">yes</parameter>
<parameter name="walkers" condition="int">1</parameter>
<parameter name="warmup_steps" condition="int">1000</parameter>
<parameter name="warmupsteps" condition="int">1000</parameter>
  DumpConfig==false Nothing (configurations, state) will be saved.
  Walker Samples are dumped every 1 steps.
</vmc>
    Restarting, cummulative properties:
      energy     = -2.078
      variance   = 0
      r2accepted = 1e-10
      r2proposed = 1e-10
  Set drift_modifier UNR parameter a = 1
 Using QMCCostFunction::QMCCostFunction
 Using Default Cost Function: Cost = <|E-E_ff|^2>
  Set drift_modifier UNR parameter a = 1.0000e+00
Doing hybrid run
This is methodName: descent
<optimization-report>
<vmc stage="main" blocks="100">
  Cannot make clones again. Use existing 1 clones
  Initial partition of walkers 0 1 

  Using Particle by Particle moves
  Walker moves with drift
  Total Sample Size   =20000
  Walker distribution on root = 0 1 
===== Memory Usage after the buffer registration =====
Available memory on node 0, free + buffers : 0 MB
Memory footprint by rank 0 on node 0       : 0 MB
==================================================
  Anonymous Buffer size per walker : 1704 Bytes.
MEMORY increase 0 MB VMC::resetRun
====================================================
  SimpleFixedNodeBranch::finalize after a VMC block
    QMC counter        = 4
    time step          = 0.05
    reference energy   = -2.05331
    reference variance = 0.207852
====================================================
  Execution time = 7.3986e-02
</vmc>
<opt stage="setup">
  <log>
   Reading configurations from h5FileRoot hybrid_ref.s004
  QMCCostFunction is created with 1 threads.
  Using Nonlocal PP in Opt: no
   Number of samples loaded to each thread : 5000 
  VMC Eavg = -2.1207e+00
  VMC Evar = 2.3136e-01
  Total weights = 2.0000e+04
  Execution time = 5.5821e-02
  </log>
</opt>
<opt stage="main" walkers="20000">
  <log>
entering engine_start function
<optimization-report>
<vmc stage="main" blocks="100">
  Cannot make clones again. Use existing 1 clones
  Initial partition of walkers 0 1 
  Using Particle by Particle moves
  Walker moves with drift
  Total Sample Size   =20000
  Walker distribution on root = 0 1 
===== Memory Usage after the buffer registration =====
Available memory on node 0, free + buffers : 0 MB
Memory footprint by rank 0 on node 0       : 0 MB
==================================================
====================================================
  SimpleFixedNodeBranch::finalize after a VMC block
    QMC counter        = 4
    time step          = 0.05
    reference energy   = -2.70311
    reference variance = 0.0955096
====================================================
  Execution time = 6.1939e-02
</vmc>
<opt stage="setup">
  <log>
     Reading configurations from h5FileRoot hybrid_ref.s004
  Using Nonlocal PP in Opt: no
   Number of samples loaded to each thread : 5000 
  VMC Eavg = -2.1287e+00
  VMC Evar = 2.0859e-01
  Total weights = 2.0000e+04
e_sum: -4.2574e+04
w_sum: 2.0000e+04
e_avg: -2.1287e+00
eSquare_sum: 9.4801e+04
eSquare_avg: 4.7400e+00
Parameter # 0 Hamiltonian term: 1.3091e+00
Parameter # 0 Overlap term: -6.7020e-01
Parameter # 1 Hamiltonian term: 2.8342e-03
Parameter # 1 Overlap term: -4.6667e-04
Parameter # 2 Hamiltonian term: 2.6373e-02
Parameter # 2 Overlap term: -1.3794e-02
Parameter # 3 Hamiltonian term: 1.5943e-01
Parameter # 3 Overlap term: -8.5452e-02
Parameter # 4 Hamiltonian term: 4.9374e-01
Parameter # 4 Overlap term: -2.2394e-01
Parameter # 5 Hamiltonian term: 7.4134e-01
Parameter # 5 Overlap term: -3.5209e-01
Parameter # 6 Hamiltonian term: 8.2453e-01
Parameter # 6 Overlap term: -3.9676e-01
Parameter # 7 Hamiltonian term: 8.2700e-01
Parameter # 7 Overlap term: -3.7843e-01
Parameter # 8 Hamiltonian term: 6.2906e-01
Parameter # 8 Overlap term: -3.0007e-01
Parameter # 9 Hamiltonian term: 3.6676e-01
Parameter # 9 Overlap term: -1.6306e-01
Parameter # 10 Hamiltonian term: 1.2984e-01
Parameter # 10 Overlap term: -6.2808e-02
Parameter # 11 Hamiltonian term: 6.6777e-02
Parameter # 11 Overlap term: -3.1514e-02
Parameter # 12 Hamiltonian term: 4.8818e-01
Parameter # 12 Overlap term: -2.3654e-01
Parameter # 13 Hamiltonian term: 1.2297e+00
Parameter # 13 Overlap term: -5.8451e-01
Parameter # 14 Hamiltonian term: 1.6334e+00
Parameter # 14 Overlap term: -7.7700e-01
Parameter # 15 Hamiltonian term: 1.5436e+00
Parameter # 15 Overlap term: -6.9626e-01
Parameter # 16 Hamiltonian term: 1.1057e+00
Parameter # 16 Overlap term: -5.2842e-01
Parameter # 17 Hamiltonian term: 9.5667e-01
Parameter # 17 Overlap term: -4.3119e-01
Parameter # 18 Hamiltonian term: 7.5354e-01
Parameter # 18 Overlap term: -3.6649e-01
Parameter # 19 Hamiltonian term: 4.5449e-01
Parameter # 19 Overlap term: -2.2375e-01
Parameter # 20 Hamiltonian term: 1.9949e-01
Parameter # 20 Overlap term: -8.8045e-02
Parameter # 21 Hamiltonian term: 2.7751e-01
Parameter # 21 Overlap term: -1.2438e-01
Parameter # 22 Hamiltonian term: 1.3801e+00
Parameter # 22 Overlap term: -6.2497e-01
Parameter # 23 Hamiltonian term: 2.3997e+00
Parameter # 23 Overlap term: -1.1424e+00
Parameter # 24 Hamiltonian term: 2.8393e+00
Parameter # 24 Overlap term: -1.3586e+00
Parameter # 25 Hamiltonian term: 2.9578e+00
Parameter # 25 Overlap term: -1.4079e+00
Parameter # 26 Hamiltonian term: 3.1287e+00
Parameter # 26 Overlap term: -1.4392e+00
Parameter # 27 Hamiltonian term: 3.2183e+00
Parameter # 27 Overlap term: -1.5222e+00
Parameter # 28 Hamiltonian term: 3.1144e+00
Parameter # 28 Overlap term: -1.4622e+00
Parameter # 29 Hamiltonian term: 2.5891e+00
Parameter # 29 Overlap term: -1.1988e+00
Parameter # 30 Hamiltonian term: 1.8070e+00
Parameter # 30 Overlap term: -8.8131e-01
  Execution time = 5.3061e-02
  </log>
</opt>
<opt stage="main" walkers="20000">
  <log>
Number of Parameters: 31
Parameter Type step sizes:  TJF_2Body_eta=1.0000e-02 TJF_1Body_eta=1.0000e-02 F_eta=1.0000e-03 CI_eta=1.0000e-01 Orb_eta=1.0000e-03
Using RMSprop
  Execution time = 1.1505e-01
  </log>
  <optVariables href="hybrid_ref.s004.opt.xml">
CSFcoeff_1 -1.832809e-01                3 1 ON  0
uu_0       5.556568e-01                 1 1 ON  1
uu_1       3.986837e-01                 1 1 ON  2
uu_2       2.426102e-01                 1 1 ON  3
uu_3       8.744623e-02                 1 1 ON  4
uu_4       1.383139e-02                 1 1 ON  5
uu_5       -2.482308e-02                1 1 ON  6
uu_6       -4.947544e-02                1 1 ON  7
uu_7       -6.272534e-03                1 1 ON  8
uu_8       1.736221e-03                 1 1 ON  9
uu_9       7.252865e-02                 1 1 ON  10
ud_0       9.216727e-01                 1 1 ON  11
ud_1       5.784715e-01                 1 1 ON  12
ud_2       3.568811e-01                 1 1 ON  13
ud_3       2.029420e-01                 1 1 ON  14
ud_4       6.974955e-02                 1 1 ON  15
ud_5       2.671291e-02                 1 1 ON  16
ud_6       3.907601e-02                 1 1 ON  17
ud_7       7.542184e-02                 1 1 ON  18
ud_8       9.003588e-02                 1 1 ON  19
ud_9       4.755326e-02                 1 1 ON  20
eH_0       1.056523e-02                 1 1 ON  21
eH_1       4.852584e-02                 1 1 ON  22
eH_2       -8.506026e-02                1 1 ON  23
eH_3       -9.581374e-02                1 1 ON  24
eH_4       -1.088257e-01                1 1 ON  25
eH_5       -8.494636e-02                1 1 ON  26
eH_6       -2.596174e-02                1 1 ON  27
eH_7       1.292155e-02                 1 1 ON  28
eH_8       5.632007e-03                 1 1 ON  29
eH_9       -6.206821e-03                1 1 ON  30
  </optVariables>
   Restore the number of walkers to 1, removing 0 walkers.
</opt>
</optimization-report>
Finished a hybrid step
  QMC Execution time = 0.2456 secs

=========================================================
  Start QMCFixedSampleLinearOptimize
  File Root hybrid_ref.s005 append = no 
=========================================================
  Skip QMCDriver::putQMCInfo 
  Resetting Properties of the walkers 1 x 13
nTargetPopulation: 2e+04
nTargetSamples: 0
W.numSamples(): 5000

=========================================================
  Start VMC
  File Root hybrid_ref.s005 append = no 
=========================================================
Using existing walkers 
  Resetting Properties of the walkers 1 x 13

<vmc function="put">
  qmc_counter=5  my_counter=0
  time step      = 0.05
  blocks         = 100
  steps          = 50
  substeps       = 1
  current        = 0
  target samples = 2e+04
  walkers/mpi    = 1

  stepsbetweensamples = 1
<parameter name="blocks" condition="int">100</parameter>
<parameter name="blocks_between_recompute" condition="int">0</parameter>
<parameter name="check_properties" condition="int">100</parameter>
<parameter name="checkproperties" condition="int">100</parameter>
<parameter name="current" condition="int">0</parameter>
<parameter name="dmcwalkersperthread" condition="real">5000</parameter>
<parameter name="maxcpusecs" condition="real">3.6e+05</parameter>
<parameter name="record_configs" condition="int">0</parameter>
<parameter name="record_walkers" condition="int">1</parameter>
<parameter name="recordconfigs" condition="int">0</parameter>
<parameter name="recordwalkers" condition="int">1</parameter>
<parameter name="rewind" condition="int">0</parameter>
<parameter name="samples" condition="real">2e+04</parameter>
<parameter name="samplesperthread" condition="real">5000</parameter>
<parameter name="steps" condition="int">50</parameter>
<parameter name="stepsbetweensamples" condition="int">1</parameter>
<parameter name="store_configs" condition="int">0</parameter>
<parameter name="storeconfigs" condition="int">0</parameter>
<parameter name="sub_steps" condition="int">1</parameter>
<parameter name="substeps" condition="int">1</parameter>
<parameter name="tau" condition="au">0.05</parameter>
<parameter name="time_step" condition="au">0.05</parameter>
<parameter name="timestep" condition="au">0.05</parameter>
<parameter name="use_drift" condition="string">yes</parameter>
<parameter name="usedrift" condition="string">yes</parameter>
<parameter name="walkers" condition="int">1</parameter>
<parameter name="warmup_steps" condition="int">1000</parameter>
<parameter name="warmupsteps" condition="int">1000</parameter>
  DumpConfig==false Nothing (configurations, state) will be saved.
  Walker Samples are dumped every 1 steps.
</vmc>
    Restarting, cummulative properties:
      energy     = -2.138
      variance   = 0
      r2accepted = 1e-10
      r2proposed = 1e-10
  Set drift_modifier UNR parameter a = 1
 Using QMCCostFunction::QMCCostFunction
 Using Default Cost Function: Cost = <|E-E_ff|^2>
  Set drift_modifier UNR parameter a = 1.0000e+00
Doing hybrid run
This is methodName: descent
<optimization-report>
<vmc stage="main" blocks="100">
  Cannot make clones again. Use existing 1 clones
  Initial partition of walkers 0 1 

  Using Particle by Particle moves
  Walker moves with drift
  Total Sample Size   =20000
  Walker distribution on root = 0 1 
===== Memory Usage after the buffer registration =====
Available memory on node 0, free + buffers : 0 MB
Memory footprint by rank 0 on node 0       : 0 MB
==================================================
  Anonymous Buffer size per walker : 1704 Bytes.
MEMORY increase 0 MB VMC::resetRun
====================================================
  SimpleFixedNodeBranch::finalize after a VMC block
    QMC counter        = 5
    time step          = 0.05
    reference energy   = -1.88363
    reference variance = 0.114347
====================================================
  Execution time = 7.3443e-02
</vmc>
<opt stage="setup">
  <log>
   Reading configurations from h5FileRoot hybrid_ref.s005
  QMCCostFunction is created with 1 threads.
  Using Nonlocal PP in Opt: no
   Number of samples loaded to each thread : 5000 
  VMC Eavg = -2.1264e+00
  VMC Evar = 1.8100e-01
  Total weights = 2.0000e+04
  Execution time = 5.3633e-02
  </log>
</opt>
<opt stage="main" walkers="20000">
  <log>
entering engine_start function
<optimization-report>
<vmc stage="main" blocks="100">
  Cannot make clones again. Use existing 1 clones
  Initial partition of walkers 0 1 
  Using Particle by Particle moves
  Walker moves with drift
  Total Sample Size   =20000
  Walker distribution on root = 0 1 
===== Memory Usage after the buffer registration =====
Available memory on node 0, free + buffers : 0 MB
Memory footprint by rank 0 on node 0       : 0 MB
==================================================
====================================================
  SimpleFixedNodeBranch::finalize after a VMC block
    QMC counter        = 5
    time step          = 0.05
    reference energy   = -1.88473
    reference variance = 0.0864542
====================================================
  Execution time = 6.3459e-02
</vmc>
<opt stage="setup">
  <log>
     Reading configurations from h5FileRoot hybrid_ref.s005
  Using Nonlocal PP in Opt: no
   Number of samples loaded to each thread : 5000 
  VMC Eavg = -2.1259e+00
  VMC Evar = 1.7897e-01
  Total weights = 2.0000e+04
e_sum: -4.2519e+04
w_sum: 2.0000e+04
e_avg: -2.1259e+00
eSquare_sum: 9.3972e+04
eSquare_avg: 4.6986e+00
Parameter # 0 Hamiltonian term: 9.8155e-01
Parameter # 0 Overlap term: -4.6709e-01
Parameter # 1 Hamiltonian term: 1.5211e-03
Parameter # 1 Overlap term: -4.8234e-04
Parameter # 2 Hamiltonian term: 1.9173e-02
Parameter # 2 Overlap term: -1.1158e-02
Parameter # 3 Hamiltonian term: 1.5369e-01
Parameter # 3 Overlap term: -6.9074e-02
Parameter # 4 Hamiltonian term: 4.3423e-01
Parameter # 4 Overlap term: -2.0393e-01
Parameter # 5 Hamiltonian term: 7.0343e-01
Parameter # 5 Overlap term: -3.3305e-01
Parameter # 6 Hamiltonian term: 8.4081e-01
Parameter # 6 Overlap term: -3.8819e-01
Parameter # 7 Hamiltonian term: 8.1016e-01
Parameter # 7 Overlap term: -3.8848e-01
Parameter # 8 Hamiltonian term: 7.1006e-01
Parameter # 8 Overlap term: -3.0704e-01
Parameter # 9 Hamiltonian term: 3.6231e-01
Parameter # 9 Overlap term: -1.9139e-01
Parameter # 10 Hamiltonian term: 1.5368e-01
Parameter # 10 Overlap term: -7.9901e-02
Parameter # 11 Hamiltonian term: 6.7065e-02
Parameter # 11 Overlap term: -3.3504e-02
Parameter # 12 Hamiltonian term: 5.0115e-01
Parameter # 12 Overlap term: -2.4100e-01
Parameter # 13 Hamiltonian term: 1.2435e+00
Parameter # 13 Overlap term: -5.8020e-01
Parameter # 14 Hamiltonian term: 1.6378e+00
Parameter # 14 Overlap term: -7.6085e-01
Parameter # 15 Hamiltonian term: 1.4896e+00
Parameter # 15 Overlap term: -6.8868e-01
Parameter # 16 Hamiltonian term: 1.1310e+00
Parameter # 16 Overlap term: -5.4135e-01
Parameter # 17 Hamiltonian term: 9.4917e-01
Parameter # 17 Overlap term: -4.5885e-01
Parameter # 18 Hamiltonian term: 7.5434e-01
Parameter # 18 Overlap term: -3.5951e-01
Parameter # 19 Hamiltonian term: 4.6417e-01
Parameter # 19 Overlap term: -2.0640e-01
Parameter # 20 Hamiltonian term: 1.8913e-01
Parameter # 20 Overlap term: -8.9403e-02
Parameter # 21 Hamiltonian term: 2.1460e-01
Parameter # 21 Overlap term: -1.2807e-01
Parameter # 22 Hamiltonian term: 1.4000e+00
Parameter # 22 Overlap term: -6.1436e-01
Parameter # 23 Hamiltonian term: 2.4007e+00
Parameter # 23 Overlap term: -1.1016e+00
Parameter # 24 Hamiltonian term: 2.7897e+00
Parameter # 24 Overlap term: -1.3254e+00
Parameter # 25 Hamiltonian term: 2.9401e+00
Parameter # 25 Overlap term: -1.3972e+00
Parameter # 26 Hamiltonian term: 3.0997e+00
Parameter # 26 Overlap term: -1.4442e+00
Parameter # 27 Hamiltonian term: 3.2633e+00
Parameter # 27 Overlap term: -1.5188e+00
Parameter # 28 Hamiltonian term: 3.0151e+00
Parameter # 28 Overlap term: -1.4542e+00
Parameter # 29 Hamiltonian term: 2.5339e+00
Parameter # 29 Overlap term: -1.1768e+00
Parameter # 30 Hamiltonian term: 1.8424e+00
Parameter # 30 Overlap term: -8.6364e-01
  Execution time = 5.3889e-02
  </log>
</opt>
<opt stage="main" walkers="20000">
  <log>
Number of Parameters: 31
Parameter Type step sizes:  TJF_2Body_eta=1.0000e-02 TJF_1Body_eta=1.0000e-02 F_eta=1.0000e-03 CI_eta=1.0000e-01 Orb_eta=1.0000e-03
Using RMSprop
Stored Vector: 0.307396,-0.011364,0.036788,0.020274,-0.003777,0.010302,0.003337,0.007580,-0.040850,-0.005404,0.061275,0.020344,0.004974,-0.011003,0.004666,-0.018024,-0.002580,0.028779,0.011679,-0.003135,-0.006244,0.022760,0.006501,-0.005924,-0.000227,0.000866,-0.007135,0.001191,0.032708,-0.003886,-0.018154,
  Execution time = 1.1742e-01
  </log>
  <optVariables href="hybrid_ref.s005.opt.xml">
CSFcoeff_1 -2.131704e-01                3 1 ON  0
uu_0       5.566541e-01                 1 1 ON  1
uu_1       4.067020e-01                 1 1 ON  2
uu_2       2.311574e-01                 1 1 ON  3
uu_3       8.889905e-02                 1 1 ON  4
uu_4       1.557870e-02                 1 1 ON  5
uu_5       -2.997219e-02                1 1 ON  6
uu_6       -1.726177e-02                1 1 ON  7
uu_7       -3.224641e-02                1 1 ON  8
uu_8       3.223194e-02                 1 1 ON  9
uu_9       9.107143e-02                 1 1 ON  10
ud_0       9.371458e-01                 1 1 ON  11
ud_1       5.806364e-01                 1 1 ON  12
ud_2       3.355417e-01                 1 1 ON  13
ud_3       1.943279e-01                 1 1 ON  14
ud_4       6.945137e-02                 1 1 ON  15
ud_5       3.224189e-02                 1 1 ON  16
ud_6       6.586844e-02                 1 1 ON  17
ud_7       7.523060e-02                 1 1 ON  18
ud_8       7.406974e-02                 1 1 ON  19
ud_9       5.204405e-02                 1 1 ON  20
eH_0       3.815992e-02                 1 1 ON  21
eH_1       3.585687e-02                 1 1 ON  22
eH_2       -1.192286e-01                1 1 ON  23
eH_3       -9.474986e-02                1 1 ON  24
eH_4       -1.054512e-01                1 1 ON  25
eH_5       -8.533524e-02                1 1 ON  26
eH_6       -3.520967e-02                1 1 ON  27
eH_7       2.588074e-02                 1 1 ON  28
eH_8       4.459952e-03                 1 1 ON  29
eH_9       -1.330438e-02                1 1 ON  30
  </optVariables>
   Restore the number of walkers to 1, removing 0 walkers.
</opt>
</optimization-report>
Finished a hybrid step
  QMC Execution time = 0.2455 secs

=========================================================
  Start QMCFixedSampleLinearOptimize
  File Root hybrid_ref.s006 append = no 
=========================================================
  Skip QMCDriver::putQMCInfo 
  Resetting Properties of the walkers 1 x 13
nTargetPopulation: 2e+04
nTargetSamples: 0
W.numSamples(): 5000

=========================================================
  Start VMC
  File Root hybrid_ref.s006 append = no 
=========================================================
Using existing walkers 
  Resetting Properties of the walkers 1 x 13

<vmc function="put">
  qmc_counter=6  my_counter=0
  time step      = 0.05
  blocks         = 100
  steps          = 50
  substeps       = 1
  current        = 0
  target samples = 2e+04
  walkers/mpi    = 1

  stepsbetweensamples = 1
<parameter name="blocks" condition="int">100</parameter>
<parameter name="blocks_between_recompute" condition="int">0</parameter>
<parameter name="check_properties" condition="int">100</parameter>
<parameter name="checkproperties" condition="int">100</parameter>
<parameter name="current" condition="int">0</parameter>
<parameter name="dmcwalkersperthread" condition="real">5000</parameter>
<parameter name="maxcpusecs" condition="real">3.6e+05</parameter>
<parameter name="record_configs" condition="int">0</parameter>
<parameter name="record_walkers" condition="int">1</parameter>
<parameter name="recordconfigs" condition="int">0</parameter>
<parameter name="recordwalkers" condition="int">1</parameter>
<parameter name="rewind" condition="int">0</parameter>
<parameter name="samples" condition="real">2e+04</parameter>
<parameter name="samplesperthread" condition="real">5000</parameter>
<parameter name="steps" condition="int">50</parameter>
<parameter name="stepsbetweensamples" condition="int">1</parameter>
<parameter name="store_configs" condition="int">0</parameter>
<parameter name="storeconfigs" condition="int">0</parameter>
<parameter name="sub_steps" condition="int">1</parameter>
<parameter name="substeps" condition="int">1</parameter>
<parameter name="tau" condition="au">0.05</parameter>
<parameter name="time_step" condition="au">0.05</parameter>
<parameter name="timestep" condition="au">0.05</parameter>
<parameter name="use_drift" condition="string">yes</parameter>
<parameter name="usedrift" condition="string">yes</parameter>
<parameter name="walkers" condition="int">1</parameter>
<parameter name="warmup_steps" condition="int">1000</parameter>
<parameter name="warmupsteps" condition="int">1000</parameter>
  DumpConfig==false Nothing (configurations, state) will be saved.
  Walker Samples are dumped every 1 steps.
</vmc>
    Restarting, cummulative properties:
      energy     = -2.096
      variance   = 0
      r2accepted = 1e-10
      r2proposed = 1e-10
  Set drift_modifier UNR parameter a = 1
 Using QMCCostFunction::QMCCostFunction
 Using Default Cost Function: Cost = <|E-E_ff|^2>
  Set drift_modifier UNR parameter a = 1.0000e+00
Doing hybrid run
This is methodName: descent
<optimization-report>
<vmc stage="main" blocks="100">
  Cannot make clones again. Use existing 1 clones
  Initial partition of walkers 0 1 

  Using Particle by Particle moves
  Walker moves with drift
  Total Sample Size   =20000
  Walker distribution on root = 0 1 
===== Memory Usage after the buffer registration =====
Available memory on node 0, free + buffers : 0 MB
Memory footprint by rank 0 on node 0       : 0 MB
==================================================
  Anonymous Buffer size per walker : 1704 Bytes.
MEMORY increase 0 MB VMC::resetRun
====================================================
  SimpleFixedNodeBranch::finalize after a VMC block
    QMC counter        = 6
    time step          = 0.05
    reference energy   = -1.98313
    reference variance = 0.110351
====================================================
  Execution time = 7.4389e-02
</vmc>
<opt stage="setup">
  <log>
   Reading configurations from h5FileRoot hybrid_ref.s006
  QMCCostFunction is created with 1 threads.
  Using Nonlocal PP in Opt: no
   Number of samples loaded to each thread : 5000 
  VMC Eavg = -2.1290e+00
  VMC Evar = 1.8489e-01
  Total weights = 2.0000e+04
  Execution time = 5.2512e-02
  </log>
</opt>
<opt stage="main" walkers="20000">
  <log>
entering engine_start function
<optimization-report>
<vmc stage="main" blocks="100">
  Cannot make clones again. Use existing 1 clones
  Initial partition of walkers 0 1 
  Using Particle by Particle moves
  Walker moves with drift
  Total Sample Size   =20000
  Walker distribution on root = 0 1 
===== Memory Usage after the buffer registration =====
Available memory on node 0, free + buffers : 0 MB
Memory footprint by rank 0 on node 0       : 0 MB
==================================================
====================================================
  SimpleFixedNodeBranch::finalize after a VMC block
    QMC counter        = 6
    time step          = 0.05
    reference energy   = -1.74873
    reference variance = 0.0465131
====================================================
  Execution time = 6.3210e-02
</vmc>
<opt stage="setup">
  <log>
     Reading configurations from h5FileRoot hybrid_ref.s006
  Using Nonlocal PP in Opt: no
   Number of samples loaded to each thread : 5000 
  VMC Eavg = -2.1318e+00
  VMC Evar = 2.0480e-01
  Total weights = 2.0000e+04
e_sum: -4.2636e+04
w_sum: 2.0000e+04
e_avg: -2.1318e+00
eSquare_sum: 9.4987e+04
eSquare_avg: 4.7494e+00
Parameter # 0 Hamiltonian term: 1.3564e+00
Parameter # 0 Overlap term: -6.8825e-01
Parameter # 1 Hamiltonian term: 1.0866e-03
Parameter # 1 Overlap term: -7.4499e-04
Parameter # 2 Hamiltonian term: 2.5392e-02
Parameter # 2 Overlap term: -1.5069e-02
Parameter # 3 Hamiltonian term: 1.7445e-01
Parameter # 3 Overlap term: -8.6271e-02
Parameter # 4 Hamiltonian term: 4.8976e-01
Parameter # 4 Overlap term: -2.2364e-01
Parameter # 5 Hamiltonian term: 7.4191e-01
Parameter # 5 Overlap term: -3.4569e-01
Parameter # 6 Hamiltonian term: 8.2721e-01
Parameter # 6 Overlap term: -3.9127e-01
Parameter # 7 Hamiltonian term: 7.9974e-01
Parameter # 7 Overlap term: -3.8830e-01
Parameter # 8 Hamiltonian term: 6.4503e-01
Parameter # 8 Overlap term: -3.0660e-01
Parameter # 9 Hamiltonian term: 3.6607e-01
Parameter # 9 Overlap term: -1.5904e-01
Parameter # 10 Hamiltonian term: 1.3852e-01
Parameter # 10 Overlap term: -5.8197e-02
Parameter # 11 Hamiltonian term: 5.6414e-02
Parameter # 11 Overlap term: -3.3525e-02
Parameter # 12 Hamiltonian term: 4.9367e-01
Parameter # 12 Overlap term: -2.3470e-01
Parameter # 13 Hamiltonian term: 1.2547e+00
Parameter # 13 Overlap term: -5.6843e-01
Parameter # 14 Hamiltonian term: 1.6598e+00
Parameter # 14 Overlap term: -7.8126e-01
Parameter # 15 Hamiltonian term: 1.5080e+00
Parameter # 15 Overlap term: -7.2840e-01
Parameter # 16 Hamiltonian term: 1.1821e+00
Parameter # 16 Overlap term: -5.4028e-01
Parameter # 17 Hamiltonian term: 9.3428e-01
Parameter # 17 Overlap term: -4.4043e-01
Parameter # 18 Hamiltonian term: 7.5871e-01
Parameter # 18 Overlap term: -3.5465e-01
Parameter # 19 Hamiltonian term: 4.3039e-01
Parameter # 19 Overlap term: -2.1086e-01
Parameter # 20 Hamiltonian term: 1.8115e-01
Parameter # 20 Overlap term: -8.0302e-02
Parameter # 21 Hamiltonian term: 2.7312e-01
Parameter # 21 Overlap term: -1.2676e-01
Parameter # 22 Hamiltonian term: 1.4502e+00
Parameter # 22 Overlap term: -6.3974e-01
Parameter # 23 Hamiltonian term: 2.3937e+00
Parameter # 23 Overlap term: -1.1643e+00
Parameter # 24 Hamiltonian term: 2.8590e+00
Parameter # 24 Overlap term: -1.3565e+00
Parameter # 25 Hamiltonian term: 3.0301e+00
Parameter # 25 Overlap term: -1.4005e+00
Parameter # 26 Hamiltonian term: 2.9806e+00
Parameter # 26 Overlap term: -1.4641e+00
Parameter # 27 Hamiltonian term: 3.2952e+00
Parameter # 27 Overlap term: -1.5156e+00
Parameter # 28 Hamiltonian term: 3.2440e+00
Parameter # 28 Overlap term: -1.4439e+00
Parameter # 29 Hamiltonian term: 2.4745e+00
Parameter # 29 Overlap term: -1.2135e+00
Parameter # 30 Hamiltonian term: 1.8355e+00
Parameter # 30 Overlap term: -8.8216e-01
  Execution time = 5.3040e-02
  </log>
</opt>
<opt stage="main" walkers="20000">
  <log>
Number of Parameters: 31
Parameter Type step sizes:  TJF_2Body_eta=1.0000e-02 TJF_1Body_eta=1.0000e-02 F_eta=1.0000e-03 CI_eta=1.0000e-01 Orb_eta=1.0000e-03
Using RMSprop
  Execution time = 1.1630e-01
  </log>
  <optVariables href="hybrid_ref.s006.opt.xml">
CSFcoeff_1 -1.236774e-01                3 1 ON  0
uu_0       5.598370e-01                 1 1 ON  1
uu_1       4.169190e-01                 1 1 ON  2
uu_2       2.399774e-01                 1 1 ON  3
uu_3       8.577035e-02                 1 1 ON  4
uu_4       7.165040e-03                 1 1 ON  5
uu_5       -2.707209e-02                1 1 ON  6
uu_6       -1.223509e-03                1 1 ON  7
uu_7       -1.915601e-02                1 1 ON  8
uu_8       8.847693e-03                 1 1 ON  9
uu_9       6.632294e-02                 1 1 ON  10
ud_0       9.591621e-01                 1 1 ON  11
ud_1       5.815515e-01                 1 1 ON  12
ud_2       3.125475e-01                 1 1 ON  13
ud_3       1.985271e-01                 1 1 ON  14
ud_4       8.159106e-02                 1 1 ON  15
ud_5       1.586209e-02                 1 1 ON  16
ud_6       6.222583e-02                 1 1 ON  17
ud_7       7.235611e-02                 1 1 ON  18
ud_8       8.740678e-02                 1 1 ON  19
ud_9       4.396539e-02                 1 1 ON  20
eH_0       2.708636e-02                 1 1 ON  21
eH_1       2.862111e-02                 1 1 ON  22
eH_2       -8.388721e-02                1 1 ON  23
eH_3       -9.170639e-02                1 1 ON  24
eH_4       -1.180511e-01                1 1 ON  25
eH_5       -7.198532e-02                1 1 ON  26
eH_6       -4.502764e-02                1 1 ON  27
eH_7       -5.098169e-04                1 1 ON  28
eH_8       1.269309e-02                 1 1 ON  29
eH_9       -3.452221e-03                1 1 ON  30
  </optVariables>
   Restore the number of walkers to 1, removing 0 walkers.
</opt>
</optimization-report>
Finished a hybrid step
  QMC Execution time = 0.244 secs

=========================================================
  Start QMCFixedSampleLinearOptimize
  File Root hybrid_ref.s007 append = no 
=========================================================
  Skip QMCDriver::putQMCInfo 
[...]
Parameter # 16 Overlap term: -5.4491e-01
Parameter # 17 Hamiltonian term: 9.4039e-01
Parameter # 17 Overlap term: -4.6397e-01
Parameter # 18 Hamiltonian term: 7.2184e-01
Parameter # 18 Overlap term: -3.5520e-01
Parameter # 19 Hamiltonian term: 4.3764e-01
Parameter # 19 Overlap term: -1.8285e-01
Parameter # 20 Hamiltonian term: 1.5710e-01
Parameter # 20 Overlap term: -7.1669e-02
Parameter # 21 Hamiltonian term: 2.5962e-01
Parameter # 21 Overlap term: -1.3367e-01
Parameter # 22 Hamiltonian term: 1.3575e+00
Parameter # 22 Overlap term: -6.5252e-01
Parameter # 23 Hamiltonian term: 2.4427e+00
Parameter # 23 Overlap term: -1.1347e+00
Parameter # 24 Hamiltonian term: 2.8464e+00
Parameter # 24 Overlap term: -1.3157e+00
Parameter # 25 Hamiltonian term: 2.9282e+00
Parameter # 25 Overlap term: -1.3802e+00
Parameter # 26 Hamiltonian term: 3.1403e+00
Parameter # 26 Overlap term: -1.4422e+00
Parameter # 27 Hamiltonian term: 3.2564e+00
Parameter # 27 Overlap term: -1.5510e+00
Parameter # 28 Hamiltonian term: 3.1265e+00
Parameter # 28 Overlap term: -1.4870e+00
Parameter # 29 Hamiltonian term: 2.5402e+00
Parameter # 29 Overlap term: -1.1755e+00
Parameter # 30 Hamiltonian term: 1.8705e+00
Parameter # 30 Overlap term: -8.4352e-01
  Execution time = 6.1266e-02
  </log>
</opt>
<opt stage="main" walkers="20000">
  <log>
Number of Parameters: 31
Parameter Type step sizes:  TJF_2Body_eta=1.0000e-02 TJF_1Body_eta=1.0000e-02 F_eta=1.0000e-03 CI_eta=1.0000e-01 Orb_eta=1.0000e-03
Using RMSprop
  Execution time = 1.3134e-01
  </log>
  <optVariables href="hybrid_ref.s060.opt.xml">
CSFcoeff_1                -7.648195e-02 3 1  ON 0
      uu_0                 5.360663e-01 1 1  ON 1
      uu_1                 3.943575e-01 1 1  ON 2
      uu_2                 2.284405e-01 1 1  ON 3
      uu_3                 8.163729e-02 1 1  ON 4
      uu_4                 2.036318e-02 1 1  ON 5
      uu_5                -2.998513e-02 1 1  ON 6
      uu_6                -3.187140e-02 1 1  ON 7
      uu_7                 8.130249e-03 1 1  ON 8
      uu_8                 4.971868e-02 1 1  ON 9
      uu_9                 2.200486e-02 1 1  ON 10
      ud_0                 9.264326e-01 1 1  ON 11
      ud_1                 5.777043e-01 1 1  ON 12
      ud_2                 3.418689e-01 1 1  ON 13
      ud_3                 1.982557e-01 1 1  ON 14
      ud_4                 7.003048e-02 1 1  ON 15
      ud_5                 2.559367e-02 1 1  ON 16
      ud_6                 4.754144e-02 1 1  ON 17
      ud_7                 6.904728e-02 1 1  ON 18
      ud_8                 9.317924e-02 1 1  ON 19
      ud_9                 7.303027e-02 1 1  ON 20
      eH_0                 4.994677e-02 1 1  ON 21
      eH_1                 3.781238e-02 1 1  ON 22
      eH_2                -1.081195e-01 1 1  ON 23
      eH_3                -9.664475e-02 1 1  ON 24
      eH_4                -1.127148e-01 1 1  ON 25
      eH_5                -8.757122e-02 1 1  ON 26
      eH_6                -3.186274e-02 1 1  ON 27
      eH_7                -2.846414e-03 1 1  ON 28
      eH_8                 9.310316e-04 1 1  ON 29
      eH_9                 7.737004e-03 1 1  ON 30
  </optVariables>
   Restore the number of walkers to 1, removing 0 walkers.
</opt>
</optimization-report>
Finished a hybrid step
  QMC Execution time = 0.2755 secs

=========================================================
  Start QMCFixedSampleLinearOptimize
  File Root hybrid_ref.s061 append = no 
=========================================================
  Skip QMCDriver::putQMCInfo 
  Resetting Properties of the walkers 1 x 13
nTargetPopulation: 2e+04
nTargetSamples: 0
W.numSamples(): 5000

=========================================================
  Start VMC
  File Root hybrid_ref.s061 append = no 
=========================================================
Using existing walkers 
  Resetting Properties of the walkers 1 x 13

<vmc function="put">
  qmc_counter=61  my_counter=0
  time step      = 0.05
  blocks         = 100
  steps          = 50
  substeps       = 1
  current        = 0
  target samples = 2e+04
  walkers/mpi    = 1

  stepsbetweensamples = 1
<parameter name="blocks" condition="int">100</parameter>
<parameter name="blocks_between_recompute" condition="int">0</parameter>
<parameter name="check_properties" condition="int">100</parameter>
<parameter name="checkproperties" condition="int">100</parameter>
<parameter name="current" condition="int">0</parameter>
<parameter name="dmcwalkersperthread" condition="real">5000</parameter>
<parameter name="maxcpusecs" condition="real">3.6e+05</parameter>
<parameter name="record_configs" condition="int">0</parameter>
<parameter name="record_walkers" condition="int">1</parameter>
<parameter name="recordconfigs" condition="int">0</parameter>
<parameter name="recordwalkers" condition="int">1</parameter>
<parameter name="rewind" condition="int">0</parameter>
<parameter name="samples" condition="real">2e+04</parameter>
<parameter name="samplesperthread" condition="real">5000</parameter>
<parameter name="steps" condition="int">50</parameter>
<parameter name="stepsbetweensamples" condition="int">1</parameter>
<parameter name="store_configs" condition="int">0</parameter>
<parameter name="storeconfigs" condition="int">0</parameter>
<parameter name="sub_steps" condition="int">1</parameter>
<parameter name="substeps" condition="int">1</parameter>
<parameter name="tau" condition="au">0.05</parameter>
<parameter name="time_step" condition="au">0.05</parameter>
<parameter name="timestep" condition="au">0.05</parameter>
<parameter name="use_drift" condition="string">yes</parameter>
<parameter name="usedrift" condition="string">yes</parameter>
<parameter name="walkers" condition="int">1</parameter>
<parameter name="warmup_steps" condition="int">1000</parameter>
<parameter name="warmupsteps" condition="int">1000</parameter>
  DumpConfig==false Nothing (configurations, state) will be saved.
  Walker Samples are dumped every 1 steps.
</vmc>
    Restarting, cummulative properties:
      energy     = -2.137
      variance   = 0
      r2accepted = 1e-10
      r2proposed = 1e-10
  Set drift_modifier UNR parameter a = 1
 Using QMCCostFunction::QMCCostFunction
 Using Default Cost Function: Cost = <|E-E_ff|^2>
  Set drift_modifier UNR parameter a = 1.0000e+00
Doing hybrid run
This is methodName: descent
<optimization-report>
<vmc stage="main" blocks="100">
  Cannot make clones again. Use existing 1 clones
  Initial partition of walkers 0 1 

  Using Particle by Particle moves
  Walker moves with drift
  Total Sample Size   =20000
  Walker distribution on root = 0 1 
===== Memory Usage after the buffer registration =====
Available memory on node 0, free + buffers : 0 MB
Memory footprint by rank 0 on node 0       : 0 MB
==================================================
  Anonymous Buffer size per walker : 1704 Bytes.
MEMORY increase 0 MB VMC::resetRun
====================================================
  SimpleFixedNodeBranch::finalize after a VMC block
    QMC counter        = 61
    time step          = 0.05
    reference energy   = -1.68182
    reference variance = 0.046991
====================================================
  Execution time = 8.2277e-02
</vmc>
<opt stage="setup">
  <log>
   Reading configurations from h5FileRoot hybrid_ref.s061
  QMCCostFunction is created with 1 threads.
  Using Nonlocal PP in Opt: no
   Number of samples loaded to each thread : 5000 
  VMC Eavg = -2.1427e+00
  VMC Evar = 1.6137e-01
  Total weights = 2.0000e+04
  Execution time = 6.1191e-02
  </log>
</opt>
<opt stage="main" walkers="20000">
  <log>
entering engine_start function
<optimization-report>
<vmc stage="main" blocks="100">
  Cannot make clones again. Use existing 1 clones
  Initial partition of walkers 0 1 
  Using Particle by Particle moves
  Walker moves with drift
  Total Sample Size   =20000
  Walker distribution on root = 0 1 
===== Memory Usage after the buffer registration =====
Available memory on node 0, free + buffers : 0 MB
Memory footprint by rank 0 on node 0       : 0 MB
==================================================
====================================================
  SimpleFixedNodeBranch::finalize after a VMC block
    QMC counter        = 61
    time step          = 0.05
    reference energy   = -2.21536
    reference variance = 0.046685
====================================================
  Execution time = 6.8419e-02
</vmc>
<opt stage="setup">
  <log>
     Reading configurations from h5FileRoot hybrid_ref.s061
  Using Nonlocal PP in Opt: no
   Number of samples loaded to each thread : 5000 
  VMC Eavg = -2.1471e+00
  VMC Evar = 1.5618e-01
  Total weights = 2.0000e+04
e_sum: -4.2941e+04
w_sum: 2.0000e+04
e_avg: -2.1471e+00
eSquare_sum: 9.5321e+04
eSquare_avg: 4.7661e+00
Parameter # 0 Hamiltonian term: 1.1175e+00
Parameter # 0 Overlap term: -5.3708e-01
Parameter # 1 Hamiltonian term: 7.1959e-04
Parameter # 1 Overlap term: -5.6360e-04
Parameter # 2 Hamiltonian term: 2.1862e-02
Parameter # 2 Overlap term: -1.1856e-02
Parameter # 3 Hamiltonian term: 1.5238e-01
Parameter # 3 Overlap term: -7.3415e-02
Parameter # 4 Hamiltonian term: 4.5649e-01
Parameter # 4 Overlap term: -2.1319e-01
Parameter # 5 Hamiltonian term: 7.4806e-01
Parameter # 5 Overlap term: -3.5622e-01
Parameter # 6 Hamiltonian term: 9.1080e-01
Parameter # 6 Overlap term: -4.1769e-01
Parameter # 7 Hamiltonian term: 8.4757e-01
Parameter # 7 Overlap term: -4.0279e-01
Parameter # 8 Hamiltonian term: 6.4253e-01
Parameter # 8 Overlap term: -2.8868e-01
Parameter # 9 Hamiltonian term: 3.4142e-01
Parameter # 9 Overlap term: -1.4946e-01
Parameter # 10 Hamiltonian term: 1.1649e-01
Parameter # 10 Overlap term: -6.2070e-02
Parameter # 11 Hamiltonian term: 7.5133e-02
Parameter # 11 Overlap term: -3.3484e-02
Parameter # 12 Hamiltonian term: 5.3316e-01
Parameter # 12 Overlap term: -2.5017e-01
Parameter # 13 Hamiltonian term: 1.2946e+00
Parameter # 13 Overlap term: -6.0882e-01
Parameter # 14 Hamiltonian term: 1.6834e+00
Parameter # 14 Overlap term: -7.8622e-01
Parameter # 15 Hamiltonian term: 1.5399e+00
Parameter # 15 Overlap term: -7.1146e-01
Parameter # 16 Hamiltonian term: 1.1150e+00
Parameter # 16 Overlap term: -5.4554e-01
Parameter # 17 Hamiltonian term: 9.7585e-01
Parameter # 17 Overlap term: -4.2322e-01
Parameter # 18 Hamiltonian term: 7.1169e-01
Parameter # 18 Overlap term: -3.3301e-01
Parameter # 19 Hamiltonian term: 4.1975e-01
Parameter # 19 Overlap term: -1.9455e-01
Parameter # 20 Hamiltonian term: 1.6866e-01
Parameter # 20 Overlap term: -8.2139e-02
Parameter # 21 Hamiltonian term: 3.2918e-01
Parameter # 21 Overlap term: -1.1969e-01
Parameter # 22 Hamiltonian term: 1.3868e+00
Parameter # 22 Overlap term: -6.2446e-01
Parameter # 23 Hamiltonian term: 2.3450e+00
Parameter # 23 Overlap term: -1.1485e+00
Parameter # 24 Hamiltonian term: 2.8364e+00
Parameter # 24 Overlap term: -1.3513e+00
Parameter # 25 Hamiltonian term: 3.1179e+00
Parameter # 25 Overlap term: -1.4075e+00
Parameter # 26 Hamiltonian term: 3.0745e+00
Parameter # 26 Overlap term: -1.4759e+00
Parameter # 27 Hamiltonian term: 3.2912e+00
Parameter # 27 Overlap term: -1.5250e+00
Parameter # 28 Hamiltonian term: 3.1781e+00
Parameter # 28 Overlap term: -1.4377e+00
Parameter # 29 Hamiltonian term: 2.5162e+00
Parameter # 29 Overlap term: -1.1837e+00
Parameter # 30 Hamiltonian term: 1.8530e+00
Parameter # 30 Overlap term: -8.8754e-01
  Execution time = 5.9715e-02
  </log>
</opt>
<opt stage="main" walkers="20000">
  <log>
Number of Parameters: 31
Parameter Type step sizes:  TJF_2Body_eta=1.0000e-02 TJF_1Body_eta=1.0000e-02 F_eta=1.0000e-03 CI_eta=1.0000e-01 Orb_eta=1.0000e-03
Using RMSprop
Stored Vector: 0.307396,-0.011364,0.036788,0.020274,-0.003777,0.010302,0.003337,0.007580,-0.040850,-0.005404,0.061275,0.020344,0.004974,-0.011003,0.004666,-0.018024,-0.002580,0.028779,0.011679,-0.003135,-0.006244,0.022760,0.006501,-0.005924,-0.000227,0.000866,-0.007135,0.001191,0.032708,-0.003886,-0.018154,
Stored Vector: 0.054955,0.001529,-0.004587,0.007863,0.008160,-0.012333,-0.012980,0.002465,0.017559,-0.008537,-0.018876,0.012134,0.004270,-0.019022,-0.014141,0.018905,0.004009,-0.025722,0.001691,0.019815,-0.001161,-0.003391,-0.006632,-0.007549,0.012731,-0.006581,0.002555,0.006598,-0.032384,0.008514,0.012181,
Stored Vector: 0.035622,-0.011274,0.016623,-0.010500,-0.012197,0.021628,-0.007230,-0.008678,0.023808,0.010541,-0.027608,-0.014647,0.007243,0.012225,0.000327,-0.012083,0.000527,-0.005351,0.012324,-0.002749,0.006414,-0.007328,0.004959,0.020640,-0.005772,-0.005243,-0.004949,-0.014652,0.009443,-0.002220,0.009562,
Stored Vector: 0.002728,-0.000192,-0.017387,0.005015,0.005369,-0.014840,0.014112,0.012561,-0.008716,-0.004828,-0.016507,-0.001606,-0.010263,0.007384,0.011850,0.001798,-0.001770,0.001458,-0.014433,0.000431,-0.001205,-0.000741,-0.009242,0.011275,-0.008934,0.004982,0.007026,-0.004453,-0.004199,0.007401,-0.001732,
Stored Vector: -0.002248,0.001702,0.006462,-0.006331,-0.008278,0.012131,0.002329,-0.009544,0.000590,0.003468,-0.000070,-0.003813,-0.002907,-0.007751,0.002971,-0.001701,0.008218,0.008840,-0.005960,-0.010779,0.015886,0.012943,0.011690,-0.007032,-0.007517,0.004712,0.001766,-0.002262,0.012873,-0.007251,-0.008657,
Stored Vector: 0.040256,-0.003967,-0.005875,0.004328,0.001046,-0.006230,-0.001477,-0.001057,0.008225,0.006420,-0.009979,-0.003803,-0.003850,0.008305,0.004541,-0.009822,-0.002999,0.000211,0.004229,0.004074,0.001946,0.003168,0.000140,-0.008188,0.008956,0.003212,-0.009720,0.013756,-0.009182,-0.013900,0.010855,
Stored Vector: -0.055892,0.004745,0.001300,-0.007006,0.003727,0.001360,0.002280,-0.007686,0.003045,0.006971,-0.003959,0.002358,0.001272,0.000928,0.003322,0.005340,-0.008454,-0.003168,-0.008759,0.010300,0.000189,-0.002108,0.000185,0.000301,0.000702,0.000912,0.003615,0.000510,-0.006589,-0.002849,0.001391,
Stored Vector: 0.019082,-0.003016,-0.004207,-0.003052,0.000906,0.007814,0.003009,-0.003971,-0.001830,-0.002576,-0.000786,-0.009065,0.000544,-0.001491,-0.002171,0.002032,0.004663,0.007796,0.000137,-0.006719,-0.001348,0.003371,-0.000962,0.000973,-0.004426,-0.005437,0.002827,0.002705,0.000331,0.007118,-0.001133,
Stored Vector: 0.033135,-0.006377,-0.009465,0.001267,0.001699,-0.004035,-0.002619,0.001522,0.000833,-0.000444,0.004247,0.004588,0.001603,0.007369,-0.001772,-0.005766,-0.004604,-0.008920,0.006392,0.005998,-0.000920,0.004471,0.000834,-0.000733,0.002339,0.001872,-0.004338,-0.003916,0.001847,-0.000050,-0.002090,
Stored Vector: 0.014641,-0.002717,0.006500,0.006247,-0.006211,0.000658,0.000256,0.001558,-0.004388,0.003012,0.007525,0.003006,-0.000439,-0.000833,-0.000848,0.001358,-0.000782,0.001062,-0.002557,-0.000006,0.002484,-0.004357,-0.001366,0.005865,0.002827,-0.008676,0.002220,0.003985,-0.003804,0.000973,0.004412,
  Execution time = 1.2840e-01
  </log>
  <optVariables href="hybrid_ref.s061.opt.xml">
CSFcoeff_1                -7.089147e-02 3 1  ON 0
      uu_0                 5.370869e-01 1 1  ON 1
      uu_1                 3.960650e-01 1 1  ON 2
      uu_2                 2.289880e-01 1 1  ON 3
      uu_3                 8.311929e-02 1 1  ON 4
      uu_4                 2.173128e-02 1 1  ON 5
      uu_5                -3.229069e-02 1 1  ON 6
      uu_6                -3.009248e-02 1 1  ON 7
      uu_7                 6.878616e-03 1 1  ON 8
      uu_8                 4.625822e-02 1 1  ON 9
      uu_9                 2.505866e-02 1 1  ON 10
      ud_0                 9.262977e-01 1 1  ON 11
      ud_1                 5.781084e-01 1 1  ON 12
      ud_2                 3.426557e-01 1 1  ON 13
      ud_3                 1.984074e-01 1 1  ON 14
      ud_4                 6.951468e-02 1 1  ON 15
      ud_5                 3.104938e-02 1 1  ON 16
      ud_6                 4.207441e-02 1 1  ON 17
      ud_7                 6.829311e-02 1 1  ON 18
      ud_8                 9.443565e-02 1 1  ON 19
      ud_9                 7.432866e-02 1 1  ON 20
      eH_0                 4.418900e-02 1 1  ON 21
      eH_1                 3.546280e-02 1 1  ON 22
      eH_2                -1.036762e-01 1 1  ON 23
      eH_3                -9.384458e-02 1 1  ON 24
      eH_4                -1.156980e-01 1 1  ON 25
      eH_5                -8.433253e-02 1 1  ON 26
      eH_6                -3.293746e-02 1 1  ON 27
      eH_7                -5.782984e-03 1 1  ON 28
      eH_8                 2.194745e-03 1 1  ON 29
      eH_9                 1.148312e-02 1 1  ON 30
  </optVariables>
   Restore the number of walkers to 1, removing 0 walkers.
</opt>
</optimization-report>
Finished a hybrid step
  QMC Execution time = 0.2727 secs

=========================================================
  Start VMC
  File Root hybrid_ref.s062 append = no 
=========================================================
Resetting walkers
  Using the current 1 walkers.
  Total number of walkers: 4
  Total weight: 4
  Resetting Properties of the walkers 1 x 13

<vmc function="put">
  qmc_counter=0  my_counter=0
  time step      = 0.05
  blocks         = 100
  steps          = 500
  substeps       = 1
  current        = 0
  target samples = 0
  walkers/mpi    = 1

  stepsbetweensamples = 50500
<parameter name="blocks" condition="int">100</parameter>
<parameter name="blocks_between_recompute" condition="int">0</parameter>
<parameter name="check_properties" condition="int">100</parameter>
<parameter name="checkproperties" condition="int">100</parameter>
<parameter name="current" condition="int">0</parameter>
<parameter name="dmcwalkersperthread" condition="real">0</parameter>
<parameter name="maxcpusecs" condition="real">3.6e+05</parameter>
<parameter name="record_configs" condition="int">0</parameter>
<parameter name="record_walkers" condition="int">50500</parameter>
<parameter name="recordconfigs" condition="int">0</parameter>
<parameter name="recordwalkers" condition="int">50500</parameter>
<parameter name="rewind" condition="int">0</parameter>
<parameter name="samples" condition="real">0</parameter>
<parameter name="samplesperthread" condition="real">0</parameter>
<parameter name="steps" condition="int">500</parameter>
<parameter name="stepsbetweensamples" condition="int">50500</parameter>
<parameter name="store_configs" condition="int">0</parameter>
<parameter name="storeconfigs" condition="int">0</parameter>
<parameter name="sub_steps" condition="int">1</parameter>
<parameter name="substeps" condition="int">1</parameter>
<parameter name="tau" condition="au">0.05</parameter>
<parameter name="time_step" condition="au">0.05</parameter>
<parameter name="timestep" condition="au">0.05</parameter>
<parameter name="use_drift" condition="string">yes</parameter>
<parameter name="usedrift" condition="string">yes</parameter>
<parameter name="walkers" condition="int">1</parameter>
<parameter name="warmup_steps" condition="int">100</parameter>
<parameter name="warmupsteps" condition="int">100</parameter>
  DumpConfig==false Nothing (configurations, state) will be saved.
  Walker Samples are dumped every 50500 steps.
</vmc>
  Set drift_modifier UNR parameter a = 1
  Cannot make clones again. Use existing 1 clones
  Initial partition of walkers 0 1 

  Using Particle by Particle moves
  Walker moves with drift
  Total Sample Size   =0
  Walker distribution on root = 0 1 
===== Memory Usage after the buffer registration =====
Available memory on node 0, free + buffers : 0 MB
Memory footprint by rank 0 on node 0       : 0 MB
==================================================
  Anonymous Buffer size per walker : 1704 Bytes.
MEMORY increase 0 MB VMC::resetRun
====================================================
  SimpleFixedNodeBranch::finalize after a VMC block
    QMC counter        = 62
    time step          = 0.05
    reference energy   = -1.96254
    reference variance = 0.215461
====================================================
  QMC Execution time = 0.6306 secs
  Total Execution time = 20.2 secs

=========================================================
  A new xml input file : hybrid_ref.s062.cont.xml
