
     Program PWSCF v.6.7MaX starts on 27May2022 at  2:26: 6 

     This program is part of the open-source Quantum ESPRESSO suite
     for quantum simulation of materials; please cite
         "P. Giannozzi et al., J. Phys.:Condens. Matter 21 395502 (2009);
         "P. Giannozzi et al., J. Phys.:Condens. Matter 29 465901 (2017);
          URL http://www.quantum-espresso.org", 
     in publications or presentations arising from this work. More details at
     http://www.quantum-espresso.org/quote

     Parallel version (MPI), running on    12 processors

     MPI processes distributed on     1 nodes
     R & G space division:  proc/nbgrp/npool/nimage =      12
     Reading input from scf.in

     Current dimensions of program PWSCF are:
     Max number of different atomic species (ntypx) = 10
     Max number of k-points (npk) =  40000
     Max angular momentum in pseudopotentials (lmaxx) =  3
     Message from routine scan_end:
     No INFO block end statement, possibly corrupted file

     Subspace diagonalization in iterative solution of the eigenvalue problem:
     one sub-group per band group will be used
     scalapack distributed-memory algorithm (size of sub-group:  3*  3 procs)

 
     Parallelization info
     --------------------
     sticks:   dense  smooth     PW     G-vecs:    dense   smooth      PW
     Min          66      66     19                 1186     1186     180
     Max          67      67     20                 1188     1188     182
     Sum         801     801    229                14243    14243    2171
 


     bravais-lattice index     =            3
     lattice parameter (alat)  =       5.9526  a.u.
     unit-cell volume          =     105.4625 (a.u.)^3
     number of atoms/cell      =            1
     number of atomic types    =            1
     number of electrons       =        14.00
     number of Kohn-Sham states=           22
     kinetic-energy cutoff     =     100.0000  Ry
     charge density cutoff     =     400.0000  Ry
     scf convergence threshold =      1.0E-06
     mixing beta               =       0.7000
     number of iterations used =            8  plain     mixing
     Exchange-correlation= SLA  PW   PBE  PBE
                           (   1   4   3   4   0   0   0)
     Non magnetic calculation with spin-orbit


     celldm(1)=   5.952637  celldm(2)=   0.000000  celldm(3)=   0.000000
     celldm(4)=   0.000000  celldm(5)=   0.000000  celldm(6)=   0.000000

     crystal axes: (cart. coord. in units of alat)
               a(1) = (   0.500000   0.500000   0.500000 )  
               a(2) = (  -0.500000   0.500000   0.500000 )  
               a(3) = (  -0.500000  -0.500000   0.500000 )  

     reciprocal axes: (cart. coord. in units 2 pi/alat)
               b(1) = (  1.000000  0.000000  1.000000 )  
               b(2) = ( -1.000000  1.000000  0.000000 )  
               b(3) = (  0.000000 -1.000000  1.000000 )  


     PseudoPot. # 1 for Mo read from file:
     ./Mo.ccECP.SOREP.upf
     MD5 check sum: 66503ab64043cae71f6b46e32c71ce86
     Pseudo is Norm-conserving, Zval = 14.0
     Generated by new atomic code, or converted to UPF format
     Using radial grid of 1172 points,  4 beta functions with: 
                l(1) =   1
                l(2) =   1
                l(3) =   2
                l(4) =   2

     atomic species   valence    mass     pseudopotential
        Mo            14.00    95.95000     Mo( 1.00)

     48 Sym. Ops., with inversion, found



   Cartesian axes

     site n.     atom                  positions (alat units)
         1           Mo  tau(   1) = (   0.0000000   0.0000000   0.0000000  )

     number of k points=     2  Methfessel-Paxton smearing, width (Ry)=  0.0005
                       cart. coord. in units 2pi/alat
        k(    1) = (   0.0000000   0.0000000   0.0000000), wk =   0.5000000
        k(    2) = (   0.5000000   0.0000000   0.5000000), wk =   0.5000000

     Dense  grid:    14243 G-vectors     FFT dimensions: (  36,  36,  36)

     Estimated max dynamical RAM per process >       3.81 MB

     Estimated total dynamical RAM >      45.70 MB

     Initial potential from superposition of free atoms

     starting charge   11.99998, renormalised to   14.00000

     negative rho (up, down):  2.104E-05 0.000E+00
     Starting wfcs are   18 randomized atomic wfcs +    4 random wfcs

     total cpu time spent up to now is        0.4 secs

     Self-consistent Calculation

     iteration #  1     ecut=   100.00 Ry     beta= 0.70
     Davidson diagonalization with overlap
     ethr =  1.00E-02,  avg # of iterations =  8.5

     negative rho (up, down):  3.989E-06 0.000E+00

     total cpu time spent up to now is        0.5 secs

     total energy              =    -135.87518443 Ry
     estimated scf accuracy    <       2.15258628 Ry

     iteration #  2     ecut=   100.00 Ry     beta= 0.70
     Davidson diagonalization with overlap
     ethr =  1.00E-02,  avg # of iterations =  3.0

     total cpu time spent up to now is        0.6 secs

     total energy              =    -136.48541209 Ry
     estimated scf accuracy    <       0.10759855 Ry

     iteration #  3     ecut=   100.00 Ry     beta= 0.70
     Davidson diagonalization with overlap
     ethr =  7.69E-04,  avg # of iterations =  3.0

     total cpu time spent up to now is        0.6 secs

     total energy              =    -136.49054119 Ry
     estimated scf accuracy    <       0.01115968 Ry

     iteration #  4     ecut=   100.00 Ry     beta= 0.70
     Davidson diagonalization with overlap
     ethr =  7.97E-05,  avg # of iterations =  3.0

     total cpu time spent up to now is        0.7 secs

     total energy              =    -136.49297077 Ry
     estimated scf accuracy    <       0.00205580 Ry

     iteration #  5     ecut=   100.00 Ry     beta= 0.70
     Davidson diagonalization with overlap
     ethr =  1.47E-05,  avg # of iterations =  2.0

     total cpu time spent up to now is        0.7 secs

     total energy              =    -136.49323139 Ry
     estimated scf accuracy    <       0.00009504 Ry

     iteration #  6     ecut=   100.00 Ry     beta= 0.70
     Davidson diagonalization with overlap
     ethr =  6.79E-07,  avg # of iterations =  4.5

     total cpu time spent up to now is        0.8 secs

     total energy              =    -136.49332434 Ry
     estimated scf accuracy    <       0.00001272 Ry

     iteration #  7     ecut=   100.00 Ry     beta= 0.70
     Davidson diagonalization with overlap
     ethr =  9.08E-08,  avg # of iterations =  3.5

     total cpu time spent up to now is        0.9 secs

     total energy              =    -136.49332493 Ry
     estimated scf accuracy    <       0.00001726 Ry

     iteration #  8     ecut=   100.00 Ry     beta= 0.70
     Davidson diagonalization with overlap
     ethr =  9.08E-08,  avg # of iterations =  2.0

     total cpu time spent up to now is        0.9 secs

     End of self-consistent calculation

          k = 0.0000 0.0000 0.0000 (  1745 PWs)   bands (ev):

   -38.3596 -38.3596 -13.8114 -13.8114 -11.3235 -11.3235 -11.3235 -11.3235
    14.3894  14.3894  20.9496  20.9496  20.9496  20.9496  21.0523  21.0523
    23.9720  23.9720  23.9720  23.9720  36.5889  36.5889

          k = 0.5000 0.0000 0.5000 (  1778 PWs)   bands (ev):

   -38.0954 -38.0954 -14.5392 -14.5392 -12.3357 -12.3357 -11.5287 -11.5287
    16.5924  16.5924  18.7932  18.7932  23.1905  23.1905  24.0705  24.0705
    24.7324  24.7324  27.4211  27.4211  33.6133  33.6134

     the Fermi energy is    22.5446 ev

!    total energy              =    -136.49332759 Ry
     estimated scf accuracy    <       0.00000016 Ry
     smearing contrib. (-TS)   =       0.00000000 Ry
     internal energy E=F+TS    =    -136.49332759 Ry

     The total energy is F=E-TS. E is the sum of the following terms:
     one-electron contribution =     -19.20645911 Ry
     hartree contribution      =      18.69739782 Ry
     xc contribution           =     -16.15673904 Ry
     ewald contribution        =    -119.82752726 Ry

     convergence has been achieved in   8 iterations

     Forces acting on atoms (cartesian axes, Ry/au):

     atom    1 type  1   force =     0.00000000    0.00000000    0.00000000

     Total force =     0.000000     Total SCF correction =     0.000000


     Computing stress (Cartesian axis) and pressure

          total   stress  (Ry/bohr**3)                   (kbar)     P=      109.07
   0.00074143  -0.00000000   0.00000000          109.07       -0.00        0.00
  -0.00000000   0.00074143  -0.00000000           -0.00      109.07       -0.00
   0.00000000  -0.00000000   0.00074143            0.00       -0.00      109.07


     Writing output data file ./out/Mo.save/
 
     init_run     :      0.11s CPU      0.21s WALL (       1 calls)
     electrons    :      0.54s CPU      0.61s WALL (       1 calls)
     forces       :      0.00s CPU      0.00s WALL (       1 calls)
     stress       :      0.01s CPU      0.02s WALL (       1 calls)

     Called by init_run:
     wfcinit      :      0.05s CPU      0.06s WALL (       1 calls)
     potinit      :      0.01s CPU      0.01s WALL (       1 calls)
     hinit0       :      0.04s CPU      0.13s WALL (       1 calls)

     Called by electrons:
     c_bands      :      0.43s CPU      0.46s WALL (       8 calls)
     sum_band     :      0.05s CPU      0.06s WALL (       8 calls)
     v_of_rho     :      0.02s CPU      0.02s WALL (       9 calls)
     mix_rho      :      0.01s CPU      0.01s WALL (       8 calls)

     Called by c_bands:
     init_us_2    :      0.00s CPU      0.00s WALL (      38 calls)
     cegterg      :      0.42s CPU      0.44s WALL (      16 calls)

     Called by *egterg:
     cdiaghg      :      0.15s CPU      0.16s WALL (      75 calls)
     h_psi        :      0.27s CPU      0.29s WALL (      77 calls)
     g_psi        :      0.00s CPU      0.00s WALL (      59 calls)

     Called by h_psi:
     h_psi:calbec :      0.01s CPU      0.01s WALL (      77 calls)
     vloc_psi     :      0.26s CPU      0.27s WALL (      77 calls)
     add_vuspsi   :      0.00s CPU      0.00s WALL (      77 calls)

     General routines
     calbec       :      0.01s CPU      0.01s WALL (      87 calls)
     fft          :      0.04s CPU      0.13s WALL (     124 calls)
     ffts         :      0.00s CPU      0.00s WALL (      32 calls)
     fftw         :      0.28s CPU      0.29s WALL (    4888 calls)
 
     Parallel routines
     fft_scatt_xy :      0.03s CPU      0.03s WALL (    5044 calls)
     fft_scatt_yz :      0.16s CPU      0.17s WALL (    5044 calls)
 
     PWSCF        :      0.76s CPU      1.29s WALL

 
   This run was terminated on:   2:26: 7  27May2022            

=------------------------------------------------------------------------------=
   JOB DONE.
=------------------------------------------------------------------------------=
