  Input file(s): qmc_long_vmc_dmc.in.xml 

=====================================================
                    QMCPACK 3.5.0 

       (c) Copyright 2003-  QMCPACK developers

                    Please cite:
 J. Kim et al. J. Phys. Cond. Mat. 30 195901 (2018)
      https://doi.org/10.1088/1361-648X/aab9c3

  Git branch: develop
  Last git commit: 787cf30313ec915723a4922ff1a1fa72799a8f30
  Last git commit date: Thu Aug 16 11:54:09 2018 -0400
  Last git commit subject: Merge pull request #1006 from anbenali/LCAO_Real_KPTS
=====================================================
  Global options 

  MPI Nodes            = 68
  MPI Nodes per group  = 68
  MPI Group ID         = 0
  OMP_NUM_THREADS      = 48

  Precision used in this calculation, see definitions in the manual:
  Base precision      = double
  Full precision      = double

  Input XML = qmc_long_vmc_dmc.in.xml

  Project = qmc_long_vmc_dmc
  date    = 2018-08-20 11:09:18 CDT
  host    = c506-041.stampede2.tacc.utexas.edu

 Random Number
 -------------
  Offset for the random number seeds based on time: 942

  Range of prime numbers to use as seeds over processors and threads = 7457-40039


 Lattice
 -------
  Simulation cell radius   = 1.945766 bohr
  Wigner-Seitz cell radius = 2.383067 bohr

 Unit Cell
 ---------
  Lattice (bohr):      0.0000000000      3.3701659000      3.3701659000
                       3.3701659000      0.0000000000      3.3701659000
                       3.3701659000      3.3701659000      0.0000000000

  Boundary Conditions:  p  p  p 

  Volume (bohr^3) = 76.5568112148

  Reciprocal vectors without 2*pi.
    g_1 =      -0.1483606490      0.1483606490      0.1483606490
    g_2 =       0.1483606490     -0.1483606490      0.1483606490
    g_3 =       0.1483606490      0.1483606490     -0.1483606490

  Metric tensor in real-space.
    h_1 = 22.7160363870 11.3580181935 11.3580181935 
    h_2 = 11.3580181935 22.7160363870 11.3580181935 
    h_3 = 11.3580181935 11.3580181935 22.7160363870 

  Metric tensor in g-space.
    h_1 = 2.6068643930 -0.8689547977 -0.8689547977 
    h_2 = -0.8689547977 2.6068643930 -0.8689547977 
    h_3 = -0.8689547977 -0.8689547977 2.6068643930 

 Particle Set 
 ------------
  Name: ion0
  Initializing the lattice by the global supercell
  All the species have the same mass 1.0000000000
  Long-range breakup parameters:
    rc*kc = 15.0000000000; rc = 1.9457661896; kc = 7.7090454549

  Creating Structure Factor for periodic systems 7.7090454549
  KContainer initialised with cutoff 7.7090454549
   # of K-shell  = 25
   # of K points = 608

  Particle set size: 2

 Particle Set 
 ------------
  Name: e
  Initializing the lattice by the global supercell
  All the species have the same mass 1.0000000000
  Long-range breakup parameters:
    rc*kc = 15.0000000000; rc = 1.9457661896; kc = 7.7090454549

  Creating Structure Factor for periodic systems 7.7090454549
  KContainer initialised with cutoff 7.7090454549
   # of K-shell  = 25
   # of K points = 608

  Particle set size: 8

 Wavefunction setup: 
 ------------------- 
  Name: psi0
  LCAO: SoaAtomicBasisSet<MultiQuintic,1>

  Distance table for similar particles (A-A):
    source/target: e
    Using structure-of-arrays (SoA) data layout
    Distance computations use general periodic cell in 3D with corner image checks.


  Distance table for dissimilar particles (A-B):
    source: ion0  target: e
    Using structure-of-arrays (SoA) data layout
    Distance computations use general periodic cell in 3D with corner image checks.

Reading BasisSet from HDF5 file:diamond.out.h5
<input node="atomicBasisSet" name="input" Morder="gaussian" angular="spherical" elementType="C" normalized="no" basisType="Numerical" addSign="0" />
  AO BasisSet for C
   Spherical Harmonics contain (-1)^m factor
   Angular momentum m expanded according to Gaussian
   Grid is created by the input paremters in h5
    Using log grid ri = 0.0000010000 rf = 100.0000000000 npts = 1001
   R(n,l,m,s) 0 0 0 0
   R(n,l,m,s) 1 0 0 0
   R(n,l,m,s) 2 0 0 0
   R(n,l,m,s) 3 1 0 0
   R(n,l,m,s) 4 1 0 0
   R(n,l,m,s) 5 1 0 0
   R(n,l,m,s) 6 2 0 0
Expanding Ylm according to Gaussian98
Adding 1 spherical orbitals for l= 0
Adding 1 spherical orbitals for l= 0
Adding 1 spherical orbitals for l= 0
Adding 3 spherical orbitals for l= 1
Adding 3 spherical orbitals for l= 1
Adding 3 spherical orbitals for l= 1
Adding 5 spherical orbitals for l= 2
   Maximum Angular Momentum  = 2
   Number of Radial functors = 7
   Basis size                = 17

  Created SPOSet builder named 'LCAOBSet' of type molecularorbital
Reuse SPOSetBuilder "LCAOBSet" type MolecularOrbital
  Building SPOSet '' with '' basis set.
Reuse SPOSetBuilder "LCAOBSet" type MolecularOrbital
  Building SPOSet '' with '' basis set.
  Creating a determinant updet group=0 sposet=updet
  Reusing a SPO set updet
Using DiracDeterminantBase 

  Creating a determinant downdet group=1 sposet=downdet
  Reusing a SPO set downdet
Using DiracDeterminantBase 

  FermionWF = SlaterDet
  BsplineJastrowBuilder adds a functor with cusp = -0.2500000000
  Jastrow cutoff unspecified.  Setting to Wigner-Seitz radius = 2.3830671616.
 size = 10 parameters 
 cusp = -0.2500000000
 rcut = 2.3830671616
Parameter     Name      Value
uu_0 0.2782901189 1 1  ON 0
uu_1 0.2345242497 1 1  ON 1
uu_2 0.1895251764 1 1  ON 2
uu_3 0.1508008749 1 1  ON 3
uu_4 0.1160196082 1 1  ON 4
uu_5 0.0862212876 1 1  ON 5
uu_6 0.0607698278 1 1  ON 6
uu_7 0.0400886957 1 1  ON 7
uu_8 0.0227662396 1 1  ON 8
uu_9 0.0113452802 1 1  ON 9
  BsplineJastrowBuilder adds a functor with cusp = -0.5000000000
  Jastrow cutoff unspecified.  Setting to Wigner-Seitz radius = 2.3830671616.
 size = 10 parameters 
 cusp = -0.5000000000
 rcut = 2.3830671616
Parameter     Name      Value
ud_0 0.4887509318 1 1  ON 0
ud_1 0.3905285735 1 1  ON 1
ud_2 0.3061015155 1 1  ON 2
ud_3 0.2358634789 1 1  ON 3
ud_4 0.1765114129 1 1  ON 4
ud_5 0.1276323701 1 1  ON 5
ud_6 0.0877505899 1 1  ON 6
ud_7 0.0566167105 1 1  ON 7
ud_8 0.0315154660 1 1  ON 8
ud_9 0.0152397381 1 1  ON 9

  Using BsplineBuilder for one-body jastrow with B-spline functions
  Jastrow cutoff unspecified.  Setting to Wigner-Seitz radius = 2.3830671616.
 size = 10 parameters 
 cusp = 0.0000000000
 rcut = 2.3830671616
Parameter     Name      Value
eC_0 -0.3955953493 1 1  ON 0
eC_1 -0.3270428104 1 1  ON 1
eC_2 -0.2133140687 1 1  ON 2
eC_3 -0.1748935346 1 1  ON 3
eC_4 -0.1843108162 1 1  ON 4
eC_5 -0.1633854496 1 1  ON 5
eC_6 -0.1155496704 1 1  ON 6
eC_7 -0.0687800163 1 1  ON 7
eC_8 -0.0353446859 1 1  ON 8
eC_9 -0.0174806828 1 1  ON 9
Parameter     Name      Value
uuC_0 0.0446738844 1 1  ON 0
uuC_1 0.0683703642 1 1  ON 1
uuC_2 0.0345468331 1 1  ON 2
uuC_3 0.0728762965 1 1  ON 3
uuC_4 0.0173336721 1 1  ON 4
uuC_5 0.0753355009 1 1  ON 5
uuC_6 -0.0049245300 1 1  ON 6
uuC_7 0.0120898068 1 1  ON 7
uuC_8 0.0094925988 1 1  ON 8
uuC_9 0.0601352870 1 1  ON 9
uuC_10 -0.0084453409 1 1  ON 10
uuC_11 0.0315247938 1 1  ON 11
uuC_12 0.0292177394 1 1  ON 12
uuC_13 0.0413466203 1 1  ON 13
uuC_14 0.0381149487 1 1  ON 14
uuC_15 0.0369663182 1 1  ON 15
uuC_16 0.0209486092 1 1  ON 16
uuC_17 -0.0031508859 1 1  ON 17
uuC_18 0.0115149771 1 1  ON 18
uuC_19 0.0085047924 1 1  ON 19
uuC_20 0.0311255154 1 1  ON 20
uuC_21 0.0198345937 1 1  ON 21
uuC_22 0.0170582265 1 1  ON 22
uuC_23 0.0111891043 1 1  ON 23
uuC_24 0.0079071283 1 1  ON 24
uuC_25 0.0074821955 1 1  ON 25
  eeI functor rcut is currently zero.
  Setting to Wigner-Seitz radius = 2.3830671616
Parameter     Name      Value
udC_0 -0.0196511708 1 1  ON 0
udC_1 0.0144236536 1 1  ON 1
udC_2 -0.0097442583 1 1  ON 2
udC_3 0.0116410366 1 1  ON 3
udC_4 -0.0195926286 1 1  ON 4
udC_5 -0.0910296532 1 1  ON 5
udC_6 -0.0220818174 1 1  ON 6
udC_7 0.0056464925 1 1  ON 7
udC_8 0.0345872700 1 1  ON 8
udC_9 -0.0235737547 1 1  ON 9
udC_10 0.0219964842 1 1  ON 10
udC_11 0.0391606449 1 1  ON 11
udC_12 0.0705742975 1 1  ON 12
udC_13 0.0020031987 1 1  ON 13
udC_14 0.0479887159 1 1  ON 14
udC_15 0.0692039066 1 1  ON 15
udC_16 0.0037330828 1 1  ON 16
udC_17 -0.0036286761 1 1  ON 17
udC_18 0.0163742086 1 1  ON 18
udC_19 0.0256862641 1 1  ON 19
udC_20 0.0117163833 1 1  ON 20
udC_21 0.0304497409 1 1  ON 21
udC_22 0.0458914241 1 1  ON 22
udC_23 0.0061849683 1 1  ON 23
udC_24 0.0134466971 1 1  ON 24
udC_25 0.0197934716 1 1  ON 25
  eeI functor rcut is currently zero.
  Setting to Wigner-Seitz radius = 2.3830671616
  QMCHamiltonian::addOperator Kinetic to H, physical Hamiltonian 

  Creating CoulombHandler with the optimal breakup. 
  KContainer initialised with cutoff 44.3921839263
   # of K-shell  = 759
   # of K points = 113394

  NUMBER OF OPT_BREAK KVECS = 37906580313
 finding kc:  7.7090454549 , -1.0000000000
  LRBreakp parameter Kc =7.7090454549
    Continuum approximation in k = [44.3921839263,3083.6181819457)

   LR Breakup chi^2 = 0.0000000000
   PBCAA self-interaction term -6.3048707709
   PBCAA total constant -6.9448146010
  Maximum K shell 24
  Number of k vectors 608
  Fixed Coulomb potential for e
    e-e Madelung Const. =-0.3301074408
    Vtot     =0.0000000000
  QMCHamiltonian::addOperator ElecElec to H, physical Hamiltonian 
QMCHamiltonian::addOperatorType added type coulomb named ElecElec

  Distance table for similar particles (A-A):
    source/target: ion0
    Using structure-of-arrays (SoA) data layout
    Distance computations use general periodic cell in 3D with corner image checks.

  Clone CoulombHandler. 
   PBCAA self-interaction term -25.2194830836
   PBCAA total constant -25.8594269137
  Maximum K shell 24
  Number of k vectors 608
  Fixed Coulomb potential for ion0
    e-e Madelung Const. =-0.3301074408
    Vtot     =-12.7870220240
  QMCHamiltonian::addOperator IonIon to H, physical Hamiltonian 
QMCHamiltonian::addOperatorType added type coulomb named IonIon

  ECPotential builder for pseudopotential 

  Adding pseudopotential for C
   Linear grid  ri=0.0000000000 rf=10.0000000000 npts = 10001
    ECPComponentBuilder::buildSemiLocalAndLocal 
    Assuming Hartree unit
   Number of angular momentum channels 2
   Maximum angular momentum channel 1
   Creating a Linear Grid Rmax=1.7000000000
  Using global grid with delta = 0.0010000000
   Making L=1 a local potential with a radial cutoff of 9.9990000000
    Non-local pseudopotential parameters
    Maximum angular mementum = 0
    Number of non-local channels = 1
       l(0)=0
    Cutoff radius = 1.7000000000
    Spherical grids and weights: 
             1.0000000000      0.0000000000      0.0000000000        0.0833333333
            -1.0000000000      0.0000000000      0.0000000000        0.0833333333
             0.4472135955      0.8944271910      0.0000000000        0.0833333333
            -0.4472135955      0.7236067977      0.5257311121        0.0833333333
             0.4472135955      0.2763932023      0.8506508084        0.0833333333
            -0.4472135955     -0.2763932023      0.8506508084        0.0833333333
             0.4472135955     -0.7236067977      0.5257311121        0.0833333333
            -0.4472135955     -0.8944271910      0.0000000000        0.0833333333
             0.4472135955     -0.7236067977     -0.5257311121        0.0833333333
            -0.4472135955     -0.2763932023     -0.8506508084        0.0833333333
             0.4472135955      0.2763932023     -0.8506508084        0.0833333333
            -0.4472135955      0.7236067977     -0.5257311121        0.0833333333
    Maximum cutoff radius 1.7000000000
  Clone CoulombHandler. 
   Constant of PBCAB 1.2798876602
  Rcut                1.9457661896
  Maximum K shell     24
  Number of k vectors 608
    CoulombPBCAB::add 
 Setting a linear grid=[0,1.9457661896) number of grid =1946
    Creating the short-range pseudopotential for species 0
  QMCHamiltonian::addOperator LocalECP to H, physical Hamiltonian 

  Using NonLocalECP potential 
    Maximum grid on a sphere for NonLocalECPotential: 12
  QMCHamiltonian::addOperator NonLocalECP to H, physical Hamiltonian 
QMCHamiltonian::addOperatorType added type pseudo named PseudoPot

  QMCHamiltonian::add2WalkerProperty added
    5 to P::PropertyList 
    0 to P::Collectables 
    starting Index of the observables in P::PropertyList = 9
ParticleSetPool::randomize 
<init source="ion0" target="e">
</init>
  Initialization Execution time = 1.1087 secs
=========================================================
 Summary of QMC systems 
=========================================================
ParticleSetPool has: 

  ParticleSet e : 0 4 8 

    8

    u  3.1116552197e+00  5.6084334198e+00  3.2479361918e+00
    u  2.7459099021e+00  9.6799437107e-01  3.5605685345e+00
    u  2.2279392533e+00  1.3253621223e+00  2.6540358314e+00
    u  2.5568135858e+00  2.0151894593e+00  9.8217548802e-01
    d  3.5636046694e+00  3.9821750983e+00  5.7651456638e+00
    d  4.1182056979e+00  5.9359075633e+00  3.7655137528e+00
    d  2.1847694592e+00  2.5870012086e+00  1.1375257735e+00
    d  2.0011571100e+00  6.9025746581e-01  2.2079426535e+00

  ParticleSet ion0 : 0 2 

    2

    C  0.0000000000e+00  0.0000000000e+00  0.0000000000e+00
    C  1.6850836299e+00  1.6850822701e+00  1.6850822701e+00

  Hamiltonian h0
  Kinetic         Kinetic energy
  ElecElec        CoulombPBCAA potential: e_e
  IonIon          CoulombPBCAA potential: ion0_ion0
  LocalECP        CoulombPBCAB potential source: ion0
  NonLocalECP     NonLocalECPotential: ion0

=========================================================
  Start VMCSingleOMP
  File Root qmc_long_vmc_dmc.s000 append = no 
=========================================================
  Adding 240 walkers to 0 existing sets
  Total number of walkers: 1.6320000000e+04
  Total weight: 1.6320000000e+04
  Resetting Properties of the walkers 1 x 14

<vmc function="put">
  qmc_counter=0  my_counter=0
  time step      = 1.0000000000e+00
  blocks         = 1
  steps          = 1
  substeps       = 1
  current        = 0
  target samples = 0.0000000000e+00
  walkers/mpi    = 240

  stepsbetweensamples = 2
<parameter name="blocks" condition="int">1</parameter>
<parameter name="blocks_between_recompute" condition="int">0</parameter>
<parameter name="check_properties" condition="int">100</parameter>
<parameter name="checkproperties" condition="int">100</parameter>
<parameter name="current" condition="int">0</parameter>
<parameter name="dmcwalkersperthread" condition="real">0.0000000000e+00</parameter>
<parameter name="maxcpusecs" condition="real">3.6000000000e+05</parameter>
<parameter name="record_configs" condition="int">0</parameter>
<parameter name="record_walkers" condition="int">2</parameter>
<parameter name="recordconfigs" condition="int">0</parameter>
<parameter name="recordwalkers" condition="int">2</parameter>
<parameter name="rewind" condition="int">0</parameter>
<parameter name="samples" condition="real">0.0000000000e+00</parameter>
<parameter name="samplesperthread" condition="real">0.0000000000e+00</parameter>
<parameter name="steps" condition="int">1</parameter>
<parameter name="stepsbetweensamples" condition="int">2</parameter>
<parameter name="store_configs" condition="int">0</parameter>
<parameter name="storeconfigs" condition="int">0</parameter>
<parameter name="sub_steps" condition="int">1</parameter>
<parameter name="substeps" condition="int">1</parameter>
<parameter name="tau" condition="au">1.0000000000e+00</parameter>
<parameter name="time_step" condition="au">1.0000000000e+00</parameter>
<parameter name="timestep" condition="au">1.0000000000e+00</parameter>
<parameter name="use_drift" condition="string">no</parameter>
<parameter name="usedrift" condition="string">no</parameter>
<parameter name="walkers" condition="int">240</parameter>
<parameter name="warmup_steps" condition="int">20</parameter>
<parameter name="warmupsteps" condition="int">20</parameter>
  DumpConfig==false Nothing (configurations, state) will be saved.
  Walker Samples are dumped every 2 steps.
</vmc>
  CloneManager::makeClones makes 48 clones for W/Psi/H.
  Cloning methods for both Psi and H are used
===== Memory Usage before cloning =====
Available memory on node 0, free + buffers : 183495 MB
Memory footprint by rank 0 on node 0       : 82 MB
==================================================
===== Memory Usage after cloning =====
Available memory on node 0, free + buffers : 183191 MB
Memory footprint by rank 0 on node 0       : 94 MB
==================================================
  Initial partition of walkers 0 5 10 15 20 25 30 35 40 45 50 55 60 65 70 75 80 85 90 95 100 105 110 115 120 125 130 135 140 145 150 155 160 165 170 175 180 185 190 195 200 205 210 215 220 225 230 235 240 

  Using Particle by Particle moves
  Walker moves without drift
  Total Sample Size   =0
  Walker distribution on root = 0 5 10 15 20 25 30 35 40 45 50 55 60 65 70 75 80 85 90 95 100 105 110 115 120 125 130 135 140 145 150 155 160 165 170 175 180 185 190 195 200 205 210 215 220 225 230 235 240 
  Using Locality Approximation
===== Memory Usage after the buffer registration =====
Available memory on node 0, free + buffers : 182898 MB
Memory footprint by rank 0 on node 0       : 119 MB
==================================================
  Anonymous Buffer size per walker : 2912 Bytes.
MEMORY increase 0 MB VMCSingleOMP::resetRun
====================================================
  SimpleFixedNodeBranch::finalize after a VMC block
    QMC counter        = 0
    time step          = 1
    reference energy   = -10.4775
    reference variance = 0.53608
====================================================
  QMC Execution time = 1.8189e+01 secs 
Creating DMCMP for the qmc driver

=========================================================
  Start DMCOMP
  File Root qmc_long_vmc_dmc.s001 append = no 
=========================================================
Using existing walkers 
  Resetting Properties of the walkers 1 x 14
  EstimatorManagerBase::add replace LocalEnergy estimator.
  Cannot make clones again. Use existing 48 clones
  Total number of walkers: 1.6320e+04
  Total weight: 1.6320e+04
  Creating WalkerController: target  number of walkers = 256
  Using WalkerControlMPI for dynamic population control.
  START ALL OVER 
  WalkerControlBase parameters 
    maxCopy = 2
    Max Walkers per MPI rank 7
    Min Walkers per MPI rank 1
    Using non-blocking send/recv
  QMC counter      = 1
  time step        = 5.0000e-03
  effective time step = 5.0000e-03
  trial energy     = -1.0477e+01
  reference energy = -1.0477e+01
  Feedback = 1.0000e+00
  reference variance = 5.3608e-01
  target walkers = 256
  branching cutoff scheme classic
  branch cutoff = 5.0000e+01 7.5000e+01
  Max and minimum walkers per node= 7 1
  QMC Status (BranchMode) = 0000001101
  Initial partition of walkers on a node: 0 5 10 15 20 25 30 35 40 45 50 55 60 65 70 75 80 85 90 95 100 105 110 115 120 125 130 135 140 145 150 155 160 165 170 175 180 185 190 195 200 205 210 215 220 225 230 235 240 
  Updates by particle-by-particle moves
  DMC moves are rejected when a node crossing is detected
  Using Locality Approximation
===== Memory Usage after the buffer registration =====
Available memory on node 0, free + buffers : 182714 MB
Memory footprint by rank 0 on node 0       : 129 MB
==================================================
SimpleFixedNodeBranch::checkParameters 
  Average Energy of a population  = -10.4775
  Energy Variance = 0.536118

  Fluctuating population
  Persistent walkers are killed after 1 MC sweeps
  BranchInterval = 1
  Steps per block = 10
  Number of blocks = 100

  DMC Engine Initialization = 1.5388e+00 secs 

 Warmup is completed after 20

  TauEff     = 4.9832e-03
 TauEff/Tau = 9.9664e-01
  Etrial     = -1.1332e+01
 Running average of energy = -1.0529e+01
                  Variance = 5.2790e-01
branch cutoff = 1.0000e+01 1.5000e+01
====================================================
  SimpleFixedNodeBranch::finalize after a DMC block
    QMC counter                   = 1
    time step                     = 0.005
    effective time step           = 0.00498233
    trial energy                  = -10.4932
    reference energy              = -10.529
    reference variance            = 0.527905
    target walkers                = 256
    branch cutoff                 = 10 15
    Max and minimum walkers per node= 7 1
    Feedback                      = 1
    QMC Status (BranchMode)       = 0000001111
====================================================
  QMC Execution time = 4.4024e+02 secs 
  Total Execution time = 4.5844e+02 secs

=========================================================
  A new xml input file : qmc_long_vmc_dmc.s001.cont.xml
