HPM profiling is enabled with event = x1 cycles, threshold = 1600000.
          ******************************************************
          *         GAMESS VERSION =  1 MAY 2012 (R2)          *
          *             FROM IOWA STATE UNIVERSITY             *
          * M.W.SCHMIDT, K.K.BALDRIDGE, J.A.BOATZ, S.T.ELBERT, *
          *   M.S.GORDON, J.H.JENSEN, S.KOSEKI, N.MATSUNAGA,   *
          *          K.A.NGUYEN, S.J.SU, T.L.WINDUS,           *
          *       TOGETHER WITH M.DUPUIS, J.A.MONTGOMERY       *
          *         J.COMPUT.CHEM.  14, 1347-1363(1993)        *
          ****************** IBM (AIX) VERSION *****************

  SINCE 1993, STUDENTS AND POSTDOCS WORKING AT IOWA STATE UNIVERSITY
  AND ALSO IN THEIR VARIOUS JOBS AFTER LEAVING ISU HAVE MADE IMPORTANT
  CONTRIBUTIONS TO THE CODE:
     IVANA ADAMOVIC, CHRISTINE AIKENS, YURI ALEXEEV, POOJA ARORA,
     ANDREY ASADCHEV, ROB BELL, PRADIPTA BANDYOPADHYAY, JONATHAN BENTZ,
     BRETT BODE, GALINA CHABAN, WEI CHEN, CHEOL HO CHOI, PAUL DAY,
     ALBERT DEFUSCO, TIM DUDLEY, DMITRI FEDOROV, GRAHAM FLETCHER,
     MARK FREITAG, KURT GLAESEMANN, DAN KEMP, GRANT MERRILL,
     NORIYUKI MINEZAWA, JONATHAN MULLIN, TAKESHI NAGATA,
     SEAN NEDD, HEATHER NETZLOFF, BOSILJKA NJEGIC, RYAN OLSON, MIKE PAK,
     JIM SHOEMAKER, LYUDMILA SLIPCHENKO, SAROM SOK, JIE SONG,
     TETSUYA TAKETSUGU, SIMON WEBB, SOOHAENG YOO, FEDERICO ZAHARIEV

  ADDITIONAL CODE HAS BEEN PROVIDED BY COLLABORATORS IN OTHER GROUPS:
     IOWA STATE UNIVERSITY:
          JOE IVANIC, LAIMUTIS BYTAUTAS, KLAUS RUEDENBERG
     UNIVERSITY OF TOKYO: KIMIHIKO HIRAO, TAKAHITO NAKAJIMA,
          TAKAO TSUNEDA, MUNEAKI KAMIYA, SUSUMU YANAGISAWA,
          KIYOSHI YAGI, MAHITO CHIBA, SEIKEN TOKURA, NAOAKI KAWAKAMI
     UNIVERSITY OF AARHUS: FRANK JENSEN
     UNIVERSITY OF IOWA: VISVALDAS KAIRYS, HUI LI
     NATIONAL INST. OF STANDARDS AND TECHNOLOGY: WALT STEVENS, DAVID GARMER
     UNIVERSITY OF PISA: BENEDETTA MENNUCCI, JACOPO TOMASI
     UNIVERSITY OF MEMPHIS: HENRY KURTZ, PRAKASHAN KORAMBATH
     UNIVERSITY OF ALBERTA: TOBY ZENG, MARIUSZ KLOBUKOWSKI
     UNIVERSITY OF NEW ENGLAND: MARK SPACKMAN
     MIE UNIVERSITY: HIROAKI UMEDA
     MICHIGAN STATE UNIVERSITY:
          KAROL KOWALSKI, MARTA WLOCH, JEFFREY GOUR, JESSE LUTZ, PIOTR PIECUCH
     UNIVERSITY OF SILESIA: MONIKA MUSIAL, STANISLAW KUCHARSKI
     FACULTES UNIVERSITAIRES NOTRE-DAME DE LA PAIX:
          OLIVIER QUINET, BENOIT CHAMPAGNE
     UNIVERSITY OF CALIFORNIA - SANTA BARBARA: BERNARD KIRTMAN
     INSTITUTE FOR MOLECULAR SCIENCE:
          KAZUYA ISHIMURA, MICHIO KATOUDA, AND SHIGERU NAGASE
     UNIVERSITY OF NOTRE DAME: DAN CHIPMAN
     KYUSHU UNIVERSITY:
          HARUYUKI NAKANO,
          FENG LONG GU, JACEK KORCHOWIEC, MARCIN MAKOWSKI, AND YURIKO AOKI,
          HIROTOSHI MORI AND EISAKU MIYOSHI
     PENNSYLVANIA STATE UNIVERSITY:
          TZVETELIN IORDANOV, CHET SWALINA, JONATHAN SKONE,
          SHARON HAMMES-SCHIFFER
     WASEDA UNIVERSITY:
          MASATO KOBAYASHI, TOMOKO AKAMA, TSUGUKI TOUMA,
          TAKESHI YOSHIKAWA, YASUHIRO IKABATA, HIROMI NAKAI
     UNIVERSITY OF NEBRASKA:
          PEIFENG SU, DEJUN SI, NANDUN THELLAMUREGE, YALI WANG, HUI LI
     UNIVERSITY OF ZURICH:
          ROBERTO PEVERATI, KIM BALDRIDGE
     N. COPERNICUS UNIVERSITY AND JACKSON STATE UNIVERSITY:
          MARIA BARYSZ


 PARALLEL VERSION RUNNING ON  1024 PROCESSORS IN  1024 NODES.

 EXECUTION OF GAMESS BEGUN Wed Jan  4 23:51:47 2017

            ECHO OF THE FIRST FEW INPUT CARDS -
 INPUT CARD>!   File created by the GAMESS Input Deck Generator Plugin for Avogadro         
 INPUT CARD> $CONTRL SCFTYP=ROHF RUNTYP=ENERGY DFTTYP=B3LYP MULT=5                          
 INPUT CARD>   ISPHER=1 EXETYP=RUN COORD=UNIQUE MAXIT=200  ICHARG=2 ECP=READ $END           
 INPUT CARD> $SYSTEM MEMORY=150000000 $END                                                  
 INPUT CARD> $GUESS  GUESS=HUCKEL $END                                                      
 INPUT CARD> $SCF DIRSCF=.TRUE. DIIS=.TRUE. DAMP=.TRUE. ETHRSH=1.0 SWDIIS=0.009  $END       
 INPUT CARD> $ECP                                                                           
 INPUT CARD>Fe-QMC_SC GEN 10 2                                                              
 INPUT CARD>3                                                                               
 INPUT CARD>16.00000000 1 3.72075632                                                        
 INPUT CARD>59.53210107 3 3.92321272                                                        
 INPUT CARD>-68.75847841 2 3.89595440                                                       
 INPUT CARD>1                                                                               
 INPUT CARD>112.92561163 2 10.42343546                                                      
 INPUT CARD>1                                                                               
 INPUT CARD>52.55882759 2 8.41664076                                                        
 INPUT CARD>C-QMC GEN 2 1                                                                   
 INPUT CARD>3                                                                               
 INPUT CARD>4.00000000 1 8.35973821                                                         
 INPUT CARD>33.43895285 3 4.48361888                                                        
 INPUT CARD>-19.17537323 2 3.93831258                                                       
 INPUT CARD>1                                                                               
 INPUT CARD>22.55164191 2 5.02991637                                                        
 INPUT CARD>O-QMC GEN 2 1                                                                   
 INPUT CARD>3                                                                               
 INPUT CARD>6.00000000 1 9.29793903                                                         
 INPUT CARD>55.78763416 3 8.86492204                                                        
 INPUT CARD>-38.81978498 2 8.62925665                                                       
 INPUT CARD>1                                                                               
 INPUT CARD>38.41914135 2 8.71924452                                                        
 INPUT CARD>C-QMC                                                                           
 INPUT CARD>O-QMC                                                                           
 INPUT CARD>C-QMC                                                                           
 INPUT CARD>O-QMC                                                                           
 INPUT CARD>C-QMC                                                                           
 INPUT CARD>O-QMC                                                                           
 INPUT CARD>C-QMC                                                                           
 INPUT CARD>O-QMC                                                                           
 INPUT CARD>C-QMC                                                                           
 INPUT CARD>O-QMC                                                                           
 INPUT CARD> $END                                                                           
 INPUT CARD>                                                                                
 INPUT CARD> $DATA                                                                          
 INPUT CARD>Title                                                                           
 INPUT CARD>C1                                                                              
 INPUT CARD>Fe 26.0   0.0000013   -0.0000001   -0.0000001                                   
 INPUT CARD>s 8 1.00                                                                        
 INPUT CARD>1 25.882657     -0.010318                                                       
 INPUT CARD>2 14.037755     0.230364                                                        
 INPUT CARD>3 9.007794     -0.566551                                                        
  150000000 WORDS OF MEMORY AVAILABLE


     RUN TITLE
     ---------
 Title                                                                           

 THE POINT GROUP OF THE MOLECULE IS C1      
 THE ORDER OF THE PRINCIPAL AXIS IS     0
 *** WARNING! ATOM   1 SHELL    1 TYPE S HAS NORMALIZATION   1.00005392
 *** WARNING! ATOM   1 SHELL    2 TYPE S HAS NORMALIZATION   1.00788932
 *** WARNING! ATOM   1 SHELL    3 TYPE S HAS NORMALIZATION    .96206202
 *** WARNING! ATOM   1 SHELL    4 TYPE S HAS NORMALIZATION   1.02674089
 *** WARNING! ATOM   1 SHELL    6 TYPE P HAS NORMALIZATION   1.00000989
 *** WARNING! ATOM   1 SHELL    7 TYPE P HAS NORMALIZATION   1.46509539
 *** WARNING! ATOM   1 SHELL    8 TYPE P HAS NORMALIZATION   1.08533094
 *** WARNING! ATOM   1 SHELL    9 TYPE P HAS NORMALIZATION    .73839781
 *** WARNING! ATOM   1 SHELL   11 TYPE D HAS NORMALIZATION   1.00052324
 *** WARNING! ATOM   1 SHELL   12 TYPE D HAS NORMALIZATION   1.01554479
 *** WARNING! ATOM   1 SHELL   13 TYPE D HAS NORMALIZATION   1.04739939

 ATOM      ATOMIC                      COORDINATES (BOHR)
           CHARGE         X                   Y                   Z
 FE         26.0      .0000024566        -.0000001890        -.0000001890
 C           6.0      .0000069920        -.0136426878        4.4230707260
 O           8.0     -.0000565028        -.0785406025        6.5288519205
 C           6.0     4.3520243988        -.0000258892        -.0000255113
 O           8.0     6.4595484876        -.0000321253        -.0000317474
 C           6.0    -4.3520157061         .0000251334         .0000247554
 O           8.0    -6.4595397949         .0000315584         .0000311805
 C           6.0     -.0000035905         .0136430657       -4.4230705371
 O           8.0      .0000472431         .0785411694       -6.5288515426
 C           6.0     -.0000052912       -4.4162633661         .0124326962
 O           8.0      .0000453534       -6.5221010634         .0779186937
 C           6.0      .0000069920        4.4162635551        -.0124321293
 O           8.0     -.0000616051        6.5221012524        -.0779179378

          INTERNUCLEAR DISTANCES (ANGS.)
          ------------------------------

                1 FE         2 C          3 O          4 C          5 O     

   1 FE       .0000000    2.3405996 *  3.4551700    2.3029910 *  3.4182448  
   2 C       2.3405996 *   .0000000    1.1148606 *  3.2836300    4.1428089  
   3 O       3.4551700    1.1148606 *   .0000000    4.1523731    4.8603420  
   4 C       2.3029910 *  3.2836300    4.1523731     .0000000    1.1152538 *
   5 O       3.4182448    4.1428089    4.8603420    1.1152538 *   .0000000  
   6 C       2.3029890 *  3.2836130    4.1523155    4.6059800    5.7212338  
   7 O       3.4182428    4.1427925    4.8602733    5.7212338    6.8364876  
   8 C       2.3405993 *  4.6811990    5.7957135    3.2836146    4.1427946  
   9 O       3.4551696    5.7957134    6.9103396    4.1523203    4.8602797  
  10 C       2.3369953 *  3.2977890    4.1424662    3.2810471    4.1407600  
  11 O       3.4515937    4.1411417    4.8249246    4.1493456    4.8577388  
  12 C       2.3369956 *  3.3173022    4.1999362    3.2810620    4.1407739  
  13 O       3.4515940    4.1993757    4.9420135    4.1493997    4.8578025  

                6 C          7 O          8 C          9 O         10 C     

   1 FE      2.3029890 *  3.4182428    2.3405993 *  3.4551696    2.3369953 *
   2 C       3.2836130    4.1427925    4.6811990    5.7957134    3.2977890  
   3 O       4.1523155    4.8602733    5.7957135    6.9103396    4.1424662  
   4 C       4.6059800    5.7212338    3.2836146    4.1523203    3.2810471  
   5 O       5.7212338    6.8364876    4.1427946    4.8602797    4.1407600  
   6 C        .0000000    1.1152538 *  3.2836276    4.1523673    3.2810591  
   7 O       1.1152538 *   .0000000    4.1428064    4.8603350    4.1407706  
   8 C       3.2836276    4.1428064     .0000000    1.1148605 *  3.3173024  
   9 O       4.1523673    4.8603350    1.1148605 *   .0000000    4.1999364  
  10 C       3.2810591    4.1407706    3.3173024    4.1999364     .0000000  
  11 O       4.1493919    4.8577930    4.1993759    4.9420138    1.1149001 *
  12 C       3.2810448    4.1407572    3.2977891    4.1424662    4.6739908  
  13 O       4.1493387    4.8577298    4.1411418    4.8249246    5.7885312  

               11 O         12 C         13 O     

   1 FE      3.4515937    2.3369956 *  3.4515940  
   2 C       4.1411417    3.3173022    4.1993757  
   3 O       4.8249246    4.1999362    4.9420135  
   4 C       4.1493456    3.2810620    4.1493997  
   5 O       4.8577388    4.1407739    4.8578025  
   6 C       4.1493919    3.2810448    4.1493387  
   7 O       4.8577930    4.1407572    4.8577298  
   8 C       4.1993759    3.2977891    4.1411418  
   9 O       4.9420138    4.1424662    4.8249246  
  10 C       1.1149001 *  4.6739908    5.7885312  
  11 O        .0000000    5.7885312    6.9031877  
  12 C       5.7885312     .0000000    1.1149001 *
  13 O       6.9031877    1.1149001 *   .0000000  

  * ... LESS THAN  3.000


     ATOMIC BASIS SET
     ----------------
 THE CONTRACTED PRIMITIVE FUNCTIONS HAVE BEEN UNNORMALIZED
 THE CONTRACTED BASIS FUNCTIONS ARE NOW NORMALIZED TO UNITY

  SHELL TYPE  PRIMITIVE        EXPONENT          CONTRACTION COEFFICIENT(S)

 FE        

      1   S       1            25.8826570    -.010318556313
      1   S       2            14.0377550     .230376420486
      1   S       3             9.0077940    -.566581546607
      1   S       4             2.0683500     .544466354292
      1   S       5              .9934980     .540030115117
      1   S       6              .4711510     .143122716300
      1   S       7              .1024890     .007386398229
      1   S       8              .0369020     .001869100770

      2   S       9            25.8826570     .000343690259
      2   S      10            14.0377550    -.048021894600
      2   S      11             9.0077940     .137541616222
      2   S      12             2.0683500    -.154580993087
      2   S      13              .9934980    -.290831503089
      2   S      14              .4711510    -.044560802670
      2   S      15              .1024890     .710328141148
      2   S      16              .0369020     .418684279266

      3   S      17            25.8826570    -.029792174671
      3   S      18            14.0377550    -.032894824695
      3   S      19             9.0077940     .368895948340
      3   S      20             2.0683500   -1.211420803045
      3   S      21              .9934980    -.095160440895
      3   S      22              .4711510    1.149010877542
      3   S      23              .1024890     .533967512333
      3   S      24              .0369020   -1.036682439844

      4   S      25            25.8826570     .441465725954
      4   S      26            14.0377550   -1.834317772273
      4   S      27             9.0077940    1.522288136312
      4   S      28             2.0683500    2.755776649246
      4   S      29              .9934980   -6.317013043468
      4   S      30              .4711510    4.935154311833
      4   S      31              .1024890   -2.191918275787
      4   S      32              .0369020     .827273881873

      5   S      33              .0175000    1.000000000000

      6   P      34            16.6593890     .007223071419
      6   P      35            10.4506530    -.070315695256
      6   P      36             4.1832890     .229163265883
      6   P      37             2.1179620     .393202887846
      6   P      38             1.0644940     .361599575364
      6   P      39              .5147430     .154140524085
      6   P      40              .2104420     .016498163128

      7   P      41            16.6593890    -.008145930393
      7   P      42            10.4506530     .093042348119
      7   P      43             4.1832890    -.405766960061
      7   P      44             2.1179620    -.470997402308
      7   P      45             1.0644940    -.007044178656
      7   P      46              .5147430     .484701904627
      7   P      47              .2104420     .523178239876

      8   P      48            16.6593890     .008883433754
      8   P      49            10.4506530    -.136044062816
      8   P      50             4.1832890     .713264299915
      8   P      51             2.1179620     .549077605794
      8   P      52             1.0644940    -.839782413060
      8   P      53              .5147430    -.643361389986
      8   P      54              .2104420     .201128103366

      9   P      55            16.6593890     .027714284892
      9   P      56            10.4506530     .066311815061
      9   P      57             4.1832890   -1.158986982737
      9   P      58             2.1179620     .817303735098
      9   P      59             1.0644940     .833767052604
      9   P      60              .5147430    -.862447161827
      9   P      61              .2104420    -.587394717103

     10   P      62              .1050000    1.000000000000

     11   D      63            10.2324130     .081633691350
     11   D      64             4.8411510     .263327710488
     11   D      65             2.0398270     .343035394609
     11   D      66              .8405650     .338503024350
     11   D      67              .3284850     .240855958607
     11   D      68              .1169260     .088421240983

     12   D      69            10.2324130    -.087844624524
     12   D      70             4.8411510    -.345019156607
     12   D      71             2.0398270    -.333994402343
     12   D      72              .8405650     .132046211604
     12   D      73              .3284850     .502634754988
     12   D      74              .1169260     .371621352438

     13   D      75            10.2324130    -.106231435919
     13   D      76             4.8411510    -.574490187236
     13   D      77             2.0398270    -.002190112128
     13   D      78              .8405650     .867725357976
     13   D      79              .3284850    -.092386910758
     13   D      80              .1169260    -.618969049811

     14   D      81              .0580000    1.000000000000

     15   F      82             1.3404070    1.000000000000

     16   F      83             4.5024100    1.000000000000

     17   G      84             3.5995620    1.000000000000

 C         

     18   S      85              .0513440     .013990987871
     18   S      86              .1026190     .169851852753
     18   S      87              .2051000     .397528655377
     18   S      88              .4099240     .380368670253
     18   S      89              .8192970     .180112843858
     18   S      90             1.6374940    -.033511970948
     18   S      91             3.2727910    -.121498894671
     18   S      92             6.5411870     .015175986844
     18   S      93            13.0735940    -.000704999389

     19   S      94              .9215520    1.000000000000

     20   S      95              .1328000    1.000000000000

     21   P      96              .0292810     .001787000047
     21   P      97              .0585470     .050426001336
     21   P      98              .1170630     .191634005079
     21   P      99              .2340640     .302667008021
     21   P     100              .4680030     .289868007682
     21   P     101              .9357570     .210979005591
     21   P     102             1.8710160     .112024002969
     21   P     103             3.7410350     .054425001442
     21   P     104             7.4800760     .021931000581

     22   P     105              .1267720    1.000000000000

     23   P     106              .3767420    1.000000000000

     24   D     107              .3294860    1.000000000000

     25   D     108             1.1416110    1.000000000000

     26   F     109              .7734850    1.000000000000

 O         

     27   S     110              .1253460     .055740958894
     27   S     111              .2680220     .304847775189
     27   S     112              .5730980     .453751665379
     27   S     113             1.2254290     .295925781768
     27   S     114             2.6202770     .019566985570
     27   S     115             5.6028180    -.128626905144
     27   S     116            11.9802450     .012023991133
     27   S     117            25.6168010     .000406999700
     27   S     118            54.7752160    -.000075999944

     28   S     119             1.6866330    1.000000000000

     29   S     120              .2379970    1.000000000000

     30   P     121              .0835980     .044957980603
     30   P     122              .1670170     .150174935208
     30   P     123              .3336730     .255998889550
     30   P     124              .6666270     .281878878385
     30   P     125             1.3318160     .242834895230
     30   P     126             2.6607610     .161133930479
     30   P     127             5.3157850     .082307964489
     30   P     128            10.6201080     .039898982786
     30   P     129            21.2173180     .004678997981

     31   P     130              .1846960    1.000000000000

     32   P     131              .6006210    1.000000000000

     33   D     132              .6693400    1.000000000000

     34   D     133             2.4042780    1.000000000000

     35   F     134             1.4231040    1.000000000000

 C         

     36   S     135              .0513440     .013990987871
     36   S     136              .1026190     .169851852753
     36   S     137              .2051000     .397528655377
     36   S     138              .4099240     .380368670253
     36   S     139              .8192970     .180112843858
     36   S     140             1.6374940    -.033511970948
     36   S     141             3.2727910    -.121498894671
     36   S     142             6.5411870     .015175986844
     36   S     143            13.0735940    -.000704999389

     37   S     144              .9215520    1.000000000000

     38   S     145              .1328000    1.000000000000

     39   P     146              .0292810     .001787000047
     39   P     147              .0585470     .050426001336
     39   P     148              .1170630     .191634005079
     39   P     149              .2340640     .302667008021
     39   P     150              .4680030     .289868007682
     39   P     151              .9357570     .210979005591
     39   P     152             1.8710160     .112024002969
     39   P     153             3.7410350     .054425001442
     39   P     154             7.4800760     .021931000581

     40   P     155              .1267720    1.000000000000

     41   P     156              .3767420    1.000000000000

     42   D     157              .3294860    1.000000000000

     43   D     158             1.1416110    1.000000000000

     44   F     159              .7734850    1.000000000000

 O         

     45   S     160              .1253460     .055740958894
     45   S     161              .2680220     .304847775189
     45   S     162              .5730980     .453751665379
     45   S     163             1.2254290     .295925781768
     45   S     164             2.6202770     .019566985570
     45   S     165             5.6028180    -.128626905144
     45   S     166            11.9802450     .012023991133
     45   S     167            25.6168010     .000406999700
     45   S     168            54.7752160    -.000075999944

     46   S     169             1.6866330    1.000000000000

     47   S     170              .2379970    1.000000000000

     48   P     171              .0835980     .044957980603
     48   P     172              .1670170     .150174935208
     48   P     173              .3336730     .255998889550
     48   P     174              .6666270     .281878878385
     48   P     175             1.3318160     .242834895230
     48   P     176             2.6607610     .161133930479
     48   P     177             5.3157850     .082307964489
     48   P     178            10.6201080     .039898982786
     48   P     179            21.2173180     .004678997981

     49   P     180              .1846960    1.000000000000

     50   P     181              .6006210    1.000000000000

     51   D     182              .6693400    1.000000000000

     52   D     183             2.4042780    1.000000000000

     53   F     184             1.4231040    1.000000000000

 C         

     54   S     185              .0513440     .013990987871
     54   S     186              .1026190     .169851852753
     54   S     187              .2051000     .397528655377
     54   S     188              .4099240     .380368670253
     54   S     189              .8192970     .180112843858
     54   S     190             1.6374940    -.033511970948
     54   S     191             3.2727910    -.121498894671
     54   S     192             6.5411870     .015175986844
     54   S     193            13.0735940    -.000704999389

     55   S     194              .9215520    1.000000000000

     56   S     195              .1328000    1.000000000000

     57   P     196              .0292810     .001787000047
     57   P     197              .0585470     .050426001336
     57   P     198              .1170630     .191634005079
     57   P     199              .2340640     .302667008021
     57   P     200              .4680030     .289868007682
     57   P     201              .9357570     .210979005591
     57   P     202             1.8710160     .112024002969
     57   P     203             3.7410350     .054425001442
     57   P     204             7.4800760     .021931000581

     58   P     205              .1267720    1.000000000000

     59   P     206              .3767420    1.000000000000

     60   D     207              .3294860    1.000000000000

     61   D     208             1.1416110    1.000000000000

     62   F     209              .7734850    1.000000000000

 O         

     63   S     210              .1253460     .055740958894
     63   S     211              .2680220     .304847775189
     63   S     212              .5730980     .453751665379
     63   S     213             1.2254290     .295925781768
     63   S     214             2.6202770     .019566985570
     63   S     215             5.6028180    -.128626905144
     63   S     216            11.9802450     .012023991133
     63   S     217            25.6168010     .000406999700
     63   S     218            54.7752160    -.000075999944

     64   S     219             1.6866330    1.000000000000

     65   S     220              .2379970    1.000000000000

     66   P     221              .0835980     .044957980603
     66   P     222              .1670170     .150174935208
     66   P     223              .3336730     .255998889550
     66   P     224              .6666270     .281878878385
     66   P     225             1.3318160     .242834895230
     66   P     226             2.6607610     .161133930479
     66   P     227             5.3157850     .082307964489
     66   P     228            10.6201080     .039898982786
     66   P     229            21.2173180     .004678997981

     67   P     230              .1846960    1.000000000000

     68   P     231              .6006210    1.000000000000

     69   D     232              .6693400    1.000000000000

     70   D     233             2.4042780    1.000000000000

     71   F     234             1.4231040    1.000000000000

 C         

     72   S     235              .0513440     .013990987871
     72   S     236              .1026190     .169851852753
     72   S     237              .2051000     .397528655377
     72   S     238              .4099240     .380368670253
     72   S     239              .8192970     .180112843858
     72   S     240             1.6374940    -.033511970948
     72   S     241             3.2727910    -.121498894671
     72   S     242             6.5411870     .015175986844
     72   S     243            13.0735940    -.000704999389

     73   S     244              .9215520    1.000000000000

     74   S     245              .1328000    1.000000000000

     75   P     246              .0292810     .001787000047
     75   P     247              .0585470     .050426001336
     75   P     248              .1170630     .191634005079
     75   P     249              .2340640     .302667008021
     75   P     250              .4680030     .289868007682
     75   P     251              .9357570     .210979005591
     75   P     252             1.8710160     .112024002969
     75   P     253             3.7410350     .054425001442
     75   P     254             7.4800760     .021931000581

     76   P     255              .1267720    1.000000000000

     77   P     256              .3767420    1.000000000000

     78   D     257              .3294860    1.000000000000

     79   D     258             1.1416110    1.000000000000

     80   F     259              .7734850    1.000000000000

 O         

     81   S     260              .1253460     .055740958894
     81   S     261              .2680220     .304847775189
     81   S     262              .5730980     .453751665379
     81   S     263             1.2254290     .295925781768
     81   S     264             2.6202770     .019566985570
     81   S     265             5.6028180    -.128626905144
     81   S     266            11.9802450     .012023991133
     81   S     267            25.6168010     .000406999700
     81   S     268            54.7752160    -.000075999944

     82   S     269             1.6866330    1.000000000000

     83   S     270              .2379970    1.000000000000

     84   P     271              .0835980     .044957980603
     84   P     272              .1670170     .150174935208
     84   P     273              .3336730     .255998889550
     84   P     274              .6666270     .281878878385
     84   P     275             1.3318160     .242834895230
     84   P     276             2.6607610     .161133930479
     84   P     277             5.3157850     .082307964489
     84   P     278            10.6201080     .039898982786
     84   P     279            21.2173180     .004678997981

     85   P     280              .1846960    1.000000000000

     86   P     281              .6006210    1.000000000000

     87   D     282              .6693400    1.000000000000

     88   D     283             2.4042780    1.000000000000

     89   F     284             1.4231040    1.000000000000

 C         

     90   S     285              .0513440     .013990987871
     90   S     286              .1026190     .169851852753
     90   S     287              .2051000     .397528655377
     90   S     288              .4099240     .380368670253
     90   S     289              .8192970     .180112843858
     90   S     290             1.6374940    -.033511970948
     90   S     291             3.2727910    -.121498894671
     90   S     292             6.5411870     .015175986844
     90   S     293            13.0735940    -.000704999389

     91   S     294              .9215520    1.000000000000

     92   S     295              .1328000    1.000000000000

     93   P     296              .0292810     .001787000047
     93   P     297              .0585470     .050426001336
     93   P     298              .1170630     .191634005079
     93   P     299              .2340640     .302667008021
     93   P     300              .4680030     .289868007682
     93   P     301              .9357570     .210979005591
     93   P     302             1.8710160     .112024002969
     93   P     303             3.7410350     .054425001442
     93   P     304             7.4800760     .021931000581

     94   P     305              .1267720    1.000000000000

     95   P     306              .3767420    1.000000000000

     96   D     307              .3294860    1.000000000000

     97   D     308             1.1416110    1.000000000000

     98   F     309              .7734850    1.000000000000

 O         

     99   S     310              .1253460     .055740958894
     99   S     311              .2680220     .304847775189
     99   S     312              .5730980     .453751665379
     99   S     313             1.2254290     .295925781768
     99   S     314             2.6202770     .019566985570
     99   S     315             5.6028180    -.128626905144
     99   S     316            11.9802450     .012023991133
     99   S     317            25.6168010     .000406999700
     99   S     318            54.7752160    -.000075999944

    100   S     319             1.6866330    1.000000000000

    101   S     320              .2379970    1.000000000000

    102   P     321              .0835980     .044957980603
    102   P     322              .1670170     .150174935208
    102   P     323              .3336730     .255998889550
    102   P     324              .6666270     .281878878385
    102   P     325             1.3318160     .242834895230
    102   P     326             2.6607610     .161133930479
    102   P     327             5.3157850     .082307964489
    102   P     328            10.6201080     .039898982786
    102   P     329            21.2173180     .004678997981

    103   P     330              .1846960    1.000000000000

    104   P     331              .6006210    1.000000000000

    105   D     332              .6693400    1.000000000000

    106   D     333             2.4042780    1.000000000000

    107   F     334             1.4231040    1.000000000000

 C         

    108   S     335              .0513440     .013990987871
    108   S     336              .1026190     .169851852753
    108   S     337              .2051000     .397528655377
    108   S     338              .4099240     .380368670253
    108   S     339              .8192970     .180112843858
    108   S     340             1.6374940    -.033511970948
    108   S     341             3.2727910    -.121498894671
    108   S     342             6.5411870     .015175986844
    108   S     343            13.0735940    -.000704999389

    109   S     344              .9215520    1.000000000000

    110   S     345              .1328000    1.000000000000

    111   P     346              .0292810     .001787000047
    111   P     347              .0585470     .050426001336
    111   P     348              .1170630     .191634005079
    111   P     349              .2340640     .302667008021
    111   P     350              .4680030     .289868007682
    111   P     351              .9357570     .210979005591
    111   P     352             1.8710160     .112024002969
    111   P     353             3.7410350     .054425001442
    111   P     354             7.4800760     .021931000581

    112   P     355              .1267720    1.000000000000

    113   P     356              .3767420    1.000000000000

    114   D     357              .3294860    1.000000000000

    115   D     358             1.1416110    1.000000000000

    116   F     359              .7734850    1.000000000000

 O         

    117   S     360              .1253460     .055740958894
    117   S     361              .2680220     .304847775189
    117   S     362              .5730980     .453751665379
    117   S     363             1.2254290     .295925781768
    117   S     364             2.6202770     .019566985570
    117   S     365             5.6028180    -.128626905144
    117   S     366            11.9802450     .012023991133
    117   S     367            25.6168010     .000406999700
    117   S     368            54.7752160    -.000075999944

    118   S     369             1.6866330    1.000000000000

    119   S     370              .2379970    1.000000000000

    120   P     371              .0835980     .044957980603
    120   P     372              .1670170     .150174935208
    120   P     373              .3336730     .255998889550
    120   P     374              .6666270     .281878878385
    120   P     375             1.3318160     .242834895230
    120   P     376             2.6607610     .161133930479
    120   P     377             5.3157850     .082307964489
    120   P     378            10.6201080     .039898982786
    120   P     379            21.2173180     .004678997981

    121   P     380              .1846960    1.000000000000

    122   P     381              .6006210    1.000000000000

    123   D     382              .6693400    1.000000000000

    124   D     383             2.4042780    1.000000000000

    125   F     384             1.4231040    1.000000000000

 TOTAL NUMBER OF BASIS SET SHELLS             =  125
 NUMBER OF CARTESIAN GAUSSIAN BASIS FUNCTIONS =  487
 NOTE: THIS RUN WILL RESTRICT THE MO VARIATION SPACE TO SPHERICAL HARMONICS.
 THE NUMBER OF ORBITALS KEPT IN THE VARIATIONAL SPACE WILL BE PRINTED LATER.
 NUMBER OF ELECTRONS                          =  108
 CHARGE OF MOLECULE                           =    2
 SPIN MULTIPLICITY                            =    5
 NUMBER OF OCCUPIED ORBITALS (ALPHA)          =   56
 NUMBER OF OCCUPIED ORBITALS (BETA )          =   52
 TOTAL NUMBER OF ATOMS                        =   13
 THE NUCLEAR REPULSION ENERGY IS      894.6311039146
 NOTE THIS RUN IS USING CORE POTENTIALS, AND THE NUMBER OF ELECTRONS,
 OCCUPIED ORBITALS, AND NUCLEAR REPULSION ENERGY WILL BE ADJUSTED BELOW
 AFTER REMOVAL OF THE CORE CHARGES.

     LEBEDEV GRID-BASED DFT OPTIONS
     ------------------------------
     DFTTYP=B3LYP   
     NRAD  =      96     NLEB  =     302
     NRAD0 =      24     NLEB0 =     110
     SWOFF =    5.00E-03 (PURE SCF -> DFT)
     SWITCH=    3.00E-04 (COARSE -> TIGHT GRID)
     THRESH=    0.00E+00 GTHRE=    1.00E+00

 GRIMME'S EMPIRICAL DISPERSION CORRECTION= F

     $CONTRL OPTIONS
     ---------------
 SCFTYP=ROHF         RUNTYP=ENERGY       EXETYP=RUN     
 MPLEVL=       0     CITYP =NONE         CCTYP =NONE         VBTYP =NONE    
 DFTTYP=B3LYP        TDDFT =NONE    
 MULT  =       5     ICHARG=       2     NZVAR =       0     COORD =UNIQUE  
 PP    =READ         RELWFN=NONE         LOCAL =NONE         NUMGRD=       F
 ISPHER=       1     NOSYM =       0     MAXIT =     200     UNITS =ANGS    
 PLTORB=       F     MOLPLT=       F     AIMPAC=       F     FRIEND=        
 NPRINT=       7     IREST =       0     GEOM  =INPUT   
 NORMF =       0     NORMP =       0     ITOL  =      20     ICUT  =       9
 INTTYP=BEST         GRDTYP=BEST         QMTTOL= 1.0E-06

     $SYSTEM OPTIONS
     ---------------
  REPLICATED MEMORY=   150000000 WORDS (ON EVERY NODE).
 DISTRIBUTED MEMDDI=           0 MILLION WORDS IN AGGREGATE,
 MEMDDI DISTRIBUTED OVER1024 PROCESSORS IS           0 WORDS/PROCESSOR.
 TOTAL MEMORY REQUESTED ON EACH PROCESSOR=   150000000 WORDS.
 TIMLIM=      525600.00 MINUTES, OR     365.0 DAYS.
 PARALL= T  BALTYP=  SLB     KDIAG=    0  COREFL= F
 MXSEQ2=     300 MXSEQ3=     150

          --------------
          ECP POTENTIALS
          --------------

 PARAMETERS FOR "FE-QMC_S" ON ATOM    1 WITH ZCORE  10 AND LMAX  2 ARE
 FOR L= 2      COEFF    N           ZETA
    1       16.00000    1        3.72076
    2       59.53210    3        3.92321
    3      -68.75848    2        3.89595
 FOR L= 0      COEFF    N           ZETA
    1      112.92561    2       10.42344
 FOR L= 1      COEFF    N           ZETA
    1       52.55883    2        8.41664

 PARAMETERS FOR "C-QMC   " ON ATOM    2 WITH ZCORE   2 AND LMAX  1 ARE
 FOR L= 1      COEFF    N           ZETA
    1        4.00000    1        8.35974
    2       33.43895    3        4.48362
    3      -19.17537    2        3.93831
 FOR L= 0      COEFF    N           ZETA
    1       22.55164    2        5.02992

 PARAMETERS FOR "O-QMC   " ON ATOM    3 WITH ZCORE   2 AND LMAX  1 ARE
 FOR L= 1      COEFF    N           ZETA
    1        6.00000    1        9.29794
    2       55.78763    3        8.86492
    3      -38.81978    2        8.62926
 FOR L= 0      COEFF    N           ZETA
    1       38.41914    2        8.71924

 PARAMETERS FOR "C-QMC   " ON ATOM    4 ARE THE SAME AS ATOM   2

 PARAMETERS FOR "O-QMC   " ON ATOM    5 ARE THE SAME AS ATOM   3

 PARAMETERS FOR "C-QMC   " ON ATOM    6 ARE THE SAME AS ATOM   2

 PARAMETERS FOR "O-QMC   " ON ATOM    7 ARE THE SAME AS ATOM   3

 PARAMETERS FOR "C-QMC   " ON ATOM    8 ARE THE SAME AS ATOM   2

 PARAMETERS FOR "O-QMC   " ON ATOM    9 ARE THE SAME AS ATOM   3

 PARAMETERS FOR "C-QMC   " ON ATOM   10 ARE THE SAME AS ATOM   2

 PARAMETERS FOR "O-QMC   " ON ATOM   11 ARE THE SAME AS ATOM   3

 PARAMETERS FOR "C-QMC   " ON ATOM   12 ARE THE SAME AS ATOM   2

 PARAMETERS FOR "O-QMC   " ON ATOM   13 ARE THE SAME AS ATOM   3

 THE ECP RUN REMOVES   34 CORE ELECTRONS, AND THE SAME NUMBER OF PROTONS.
 NUMBER OF ELECTRONS KEPT IN THE CALCULATION IS =   74
 NUMBER OF OCCUPIED ORBITALS (ALPHA) KEPT IS    =   39
 NUMBER OF OCCUPIED ORBITALS (BETA ) KEPT IS    =   35
 THE ADJUSTED NUCLEAR REPULSION ENERGY=      422.4305223060
          ECP ANGULAR INTS.........      .14 SECONDS

          ----------------
          PROPERTIES INPUT
          ----------------

     MOMENTS            FIELD           POTENTIAL          DENSITY
 IEMOM =       1   IEFLD =       0   IEPOT =       0   IEDEN =       0
 WHERE =COMASS     WHERE =NUCLEI     WHERE =NUCLEI     WHERE =NUCLEI  
 OUTPUT=BOTH       OUTPUT=BOTH       OUTPUT=BOTH       OUTPUT=BOTH    
 IEMINT=       0   IEFINT=       0                     IEDINT=       0
                                                       MORB  =       0
          EXTRAPOLATION IN EFFECT
          DAMPING IN EFFECT
          DIIS IN EFFECT
 ORBITAL PRINTING OPTION: NPREO=     1   487     2     1

     -------------------------------
     INTEGRAL TRANSFORMATION OPTIONS
     -------------------------------
     NWORD  =            0
     CUTOFF = 1.0E-09     MPTRAN =       0
     DIRTRF =       T     AOINTS =DUP     

          ----------------------
          INTEGRAL INPUT OPTIONS
          ----------------------
 NOPK  =       1 NORDER=       0 SCHWRZ=       T

     ------------------------------------------
     THE POINT GROUP IS C1 , NAXIS= 0, ORDER= 1
     ------------------------------------------

 -- VARIATIONAL SPACE WILL BE RESTRICTED TO PURE SPHERICAL HARMONICS ONLY --
 AFTER EXCLUDING CONTAMINANT COMBINATIONS FROM THE CARTESIAN GAUSSIAN BASIS
 SET, THE NUMBER OF SPHERICAL HARMONICS KEPT IN THE VARIATION SPACE IS  411

     DIMENSIONS OF THE SYMMETRY SUBSPACES ARE
 A   =  411

 ..... DONE SETTING UP THE RUN .....
 CPU     0: STEP CPU TIME=     1.70 TOTAL CPU TIME=        1.8 (     .0 MIN)
 TOTAL WALL CLOCK TIME=        2.0 SECONDS, CPU UTILIZATION IS  88.50%

          ********************
          1 ELECTRON INTEGRALS
          ********************
 TIME TO DO ORDINARY INTEGRALS=       .10
 TIME TO DO      ECP INTEGRALS=       .26
 ...... END OF ONE-ELECTRON INTEGRALS ......
 CPU     0: STEP CPU TIME=      .37 TOTAL CPU TIME=        2.1 (     .0 MIN)
 TOTAL WALL CLOCK TIME=        2.0 SECONDS, CPU UTILIZATION IS 107.00%

          -------------
          GUESS OPTIONS
          -------------
          GUESS =HUCKEL            NORB  =       0          NORDER=       0
          MIX   =       F          PRTMO =       F          PUNMO =       F
          TOLZ  = 1.0E-08          TOLE  = 1.0E-05
          SYMDEN=       F          PURIFY=       F

 INITIAL GUESS ORBITALS GENERATED BY HUCKEL   ROUTINE.
 HUCKEL GUESS REQUIRES   1725561 WORDS.

 STATISTICS FOR GENERATION OF SYMMETRY ORBITAL -Q- MATRIX
 NUMBER OF CARTESIAN ATOMIC ORBITALS=        487
 NUMBER OF SPHERICAL CONTAMINANTS DROPPED=    76
 NUMBER OF LINEARLY DEPENDENT MOS DROPPED=     0
 TOTAL NUMBER OF MOS IN VARIATION SPACE=     411

 SYMMETRIES FOR INITIAL GUESS ORBITALS FOLLOW.  ALPHA SET(S).
    39 ORBITALS ARE OCCUPIED (    4 CORE ORBITALS).
     5=A        6=A        7=A        8=A        9=A       10=A       11=A   
    12=A       13=A       14=A       15=A       16=A       17=A       18=A   
    19=A       20=A       21=A       22=A       23=A       24=A       25=A   
    26=A       27=A       28=A       29=A       30=A       31=A       32=A   
    33=A       34=A       35=A       36=A       37=A       38=A       39=A   
    40=A       41=A       42=A       43=A       44=A       45=A       46=A   
    47=A       48=A       49=A   

 SYMMETRIES FOR INITIAL GUESS ORBITALS FOLLOW.   BETA SET(S).
    35 ORBITALS ARE OCCUPIED (    4 CORE ORBITALS).
     5=A        6=A        7=A        8=A        9=A       10=A       11=A   
    12=A       13=A       14=A       15=A       16=A       17=A       18=A   
    19=A       20=A       21=A       22=A       23=A       24=A       25=A   
    26=A       27=A       28=A       29=A       30=A       31=A       32=A   
    33=A       34=A       35=A       36=A       37=A       38=A       39=A   
    40=A       41=A       42=A       43=A       44=A       45=A   
 ...... END OF INITIAL ORBITAL SELECTION ......
 CPU     0: STEP CPU TIME=     3.85 TOTAL CPU TIME=        6.0 (     .1 MIN)
 TOTAL WALL CLOCK TIME=        6.0 SECONDS, CPU UTILIZATION IS  99.83%

                    ----------------------
                    AO INTEGRAL TECHNOLOGY
                    ----------------------
     S,P,L SHELL ROTATED AXIS INTEGRALS, REPROGRAMMED BY
        KAZUYA ISHIMURA (IMS) AND JOSE SIERRA (SYNSTAR).
     S,P,D,L SHELL ROTATED AXIS INTEGRALS PROGRAMMED BY
        KAZUYA ISHIMURA (INSTITUTE FOR MOLECULAR SCIENCE).
     S,P,D,F,G SHELL TO TOTAL QUARTET ANGULAR MOMENTUM SUM 5,
        ERIC PROGRAM BY GRAHAM FLETCHER (ELORET AND NASA ADVANCED
        SUPERCOMPUTING DIVISION, AMES RESEARCH CENTER).
     S,P,D,F,G,L SHELL GENERAL RYS QUADRATURE PROGRAMMED BY
        MICHEL DUPUIS (PACIFIC NORTHWEST NATIONAL LABORATORY).

          --------------------
          2 ELECTRON INTEGRALS
          --------------------

 DIRECT SCF METHOD SKIPS INTEGRAL STORAGE ON DISK.
 DIRECT TRANSFORMATION SKIPS AO INTEGRAL STORAGE ON DISK.
  ...... END OF TWO-ELECTRON INTEGRALS .....
 CPU     0: STEP CPU TIME=      .16 TOTAL CPU TIME=        6.1 (     .1 MIN)
 TOTAL WALL CLOCK TIME=        6.0 SECONDS, CPU UTILIZATION IS 102.50%

          ---------------------------
             RO-B3LYP SCF CALCULATION
          ---------------------------

     NUCLEAR ENERGY =       422.4305223060
     MAXIT =200     NPUNCH=  2     MULT=  5
     EXTRAP=T  DAMP=T  SHIFT=F  RSTRCT=F  DIIS=T  SOSCF=T
         DENSITY MATRIX CONVERGENCE THRESHOLD=  2.00E-05
     COARSE -> FINE DFT GRID SWITCH THRESHOLD=  3.00E-04 (SWITCH IN $DFT)
                   HF -> DFT SWITCH THRESHOLD=  5.00E-03 (SWOFF IN $DFT)
     ROHF CANONICALIZATION PARAMETERS
             C-C     O-O     V-V
     ALPHA  -.5000   .5000  1.5000
     BETA   1.5000   .5000  -.5000
     SOSCF WILL OPTIMIZE   14648 ORBITAL ROTATION ANGLES. SOGTOL= 2.500E-01
     MEMORY REQUIRED FOR UHF/ROHF ITERS=   2663493 WORDS.

 DIRECT SCF CALCULATION, SCHWRZ=T   FDIFF=T
 SCHWARZ INEQUALITY OVERHEAD:    102394 INTEGRALS, T=         .09

 DFT CODE IS SWITCHING FROM THE FINE GRID NRAD= 96,  NLEB=  302
                      TO THE COARSE GRID NRAD0= 24, NLEB0=  110

     EXCHANGE FUNCTIONAL   =B88&HFX   
     CORRELATION FUNCTIONAL=LYP88&VWN5
     DFT THRESHOLD         =.106E-07
     GRID CHANGE THRESHOLD =.300E-03
 FOR AN EULER-MACLAURIN QUADRATURE USING  96 RADIAL POINTS:
 SMALLEST GAUSSIAN PRIMITIVE EXPONENT=         .0175000000 OF TYPE -S-
 ON ATOM NUMBER   1 HAS RADIAL NORMALIZATION=  1.000000
  LARGEST GAUSSIAN PRIMITIVE EXPONENT=       54.7752160000 OF TYPE -S-
 ON ATOM NUMBER   3 HAS RADIAL NORMALIZATION=  1.000000
 DFT IS SWITCHED OFF, PERFORMING PURE SCF UNTIL SWOFF THRESHOLD IS REACHED.

                                                                                                                NONZERO     BLOCKS
 ITER EX      TOTAL ENERGY        E CHANGE  DENSITY CHANGE    DIIS ERROR      VIR. SHIFT       DAMPING        INTEGRALS    SKIPPED
   1  0     -247.4524415859  -247.4524415859    .655667064   1.010442261      .000000000     1.000000000     2521886776    9977454
          * * *   INITIATING DIIS PROCEDURE   * * *
   2  1     -247.3820403555      .0704012304    .801481151    .673481801      .000000000     1.000000000     2530810241    9735872
   3  2     -250.0794022983    -2.6973619429    .446592386    .180909964      .000000000     1.000000000     2525412733   10064425
   4  3     -250.2958373931     -.2164350947    .203460672    .137650897      .000000000     1.000000000     2464174926   11236321
   5  4     -250.5319136387     -.2360762456    .031286995    .017757331      .000000000     1.000000000     2409545841   12004562
   6  5     -250.5341780753     -.0022644366    .016779698    .012378533      .000000000     1.000000000     2335710169   13080990
   7  6     -250.5349703714     -.0007922961    .007777628    .003482984      .000000000     1.000000000     2246484556   13975272
         SWDIIS THRESHOLD HAS BEEN REACHED: SWITCHING DIIS OFF.
          ---------------START SECOND ORDER SCF---------------
   8  7     -250.5350723490     -.0001019776    .007077753    .002253152     2134892555   15005391
   9  8     -250.5350507897      .0000215593    .003687779    .002836639     2079834935   15292890
 CONVERGED TO SWOFF, SO DFT CALCULATION IS NOW SWITCHED ON.
          ---------------START SECOND ORDER SCF---------------
  10  9     -253.5493414058    -3.0142906162    .100118144    .045770308     2492865966   10608974
  11 10     -253.6215325190     -.0721911131    .053694440    .014236825     2437683087   11665041
  12 11     -253.6237819570     -.0022494381    .022986839    .020838838     2386067839   12372605
  13 12     -253.6277816594     -.0039997023    .008497961    .002482507     2283130266   13480232
  14 13     -253.6279090957     -.0001274364    .004774800    .002130445     2194213783   14405799
  15 14     -253.6279926260     -.0000835303    .002208080    .000407596     2068881187   15424831
  16 15     -253.6279992524     -.0000066264    .001817106    .000272628     1982873977   16300314
  17 16     -253.6280009532     -.0000017008    .003033945    .000272057     1871832941   17063881
  18 17     -253.6280023761     -.0000014229    .008373737    .000270411     1880072983   16997029
  19 18     -253.6280047885     -.0000024125    .022383017    .000359194     1963161070   16391872
  20 19     -253.6280094635     -.0000046749    .053748089    .000638255     2039813024   15807982
  21 20     -253.6280198965     -.0000104330    .076857710    .000914460     2106879160   15329435
  22 21     -253.6280441395     -.0000242430    .071353169    .001671680     2116636602   15368461
  23 22     -253.6280857787     -.0000416392    .053567796    .001152726     2136296282   15057341
  24 23     -253.6281053740     -.0000195953    .035408246    .000238123     2135129090   14980294
  25 24     -253.6281080312     -.0000026571    .002131275    .000526120     2035627532   15997885
  26 25     -253.6281092122     -.0000011810    .009322023    .000150251     1814983050   17574734
  27 26     -253.6281095624     -.0000003502    .002764450    .000133335     1878992863   17238263
  28 27     -253.6281096272     -.0000000648    .003641827    .000016269     1683782411   18864839
  29 28     -253.6281096385     -.0000000113    .000643780    .000006156     1680811127   18982328
  30 29     -253.6281096406     -.0000000022    .000446029    .000003362     1388043851   21148775
  31 30     -253.6281096402      .0000000005    .000058568    .000001979     1313448389   21778642
 DFT CODE IS SWITCHING BACK TO THE FINE GRID
          ---------------START SECOND ORDER SCF---------------
  32 31     -253.5578227580      .0702868822    .039968275    .011270457     2492211220   10601772
  33 32     -253.5605552205     -.0027324625    .006579153    .001493110     2394720573   12338458
  34 33     -253.5606301355     -.0000749149    .002620974    .001336038     2266433330   13785594
  35 34     -253.5606583588     -.0000282234    .001479490    .000447293     2041524086   15718908
  36 35     -253.5606625497     -.0000041909    .000380849    .000084963     2096757769   15343012
  37 36     -253.5606627968     -.0000002470    .000244040    .000040265     1780932731   17902125
  38 37     -253.5606628692     -.0000000724    .000175442    .000025902     1716769519   18329207
  39 38     -253.5606628858     -.0000000166    .000301456    .000025864     1585406365   19458751
  40 39     -253.5606628998     -.0000000140    .001058625    .000025817     1516374970   20011403
  41 40     -253.5606629256     -.0000000259    .002261636    .000034573     1624198496   19198512
  42 41     -253.5606629616     -.0000000360    .005365789    .000053198     1677974612   18844057
  43 42     -253.5606630348     -.0000000732    .008486651    .000076533     1767690656   18197445
  44 43     -253.5606631959     -.0000001611    .008572150    .000074266     1818798067   17880978
  45 44     -253.5606634442     -.0000002483    .001562473    .000041802     1839426827   17650081
  46 45     -253.5606635647     -.0000001205    .001537867    .000013895     1709212848   18502211
  47 46     -253.5606635820     -.0000000174    .000774219    .000005698     1588356275   19544699
  48 47     -253.5606635826     -.0000000005    .000071133    .000001531     1425332900   20852750
  49 48     -253.5606635845     -.0000000019    .000020367    .000000811     1125531743   22777231
  50 49     -253.5606635890     -.0000000045    .000022179    .000000419      901938358   24302243
  51 50     -253.5606635909     -.0000000019    .000003973    .000000128      852506159   24843962
  52 51     -253.5606635961     -.0000000052    .000000702    .000000065      767840103   25275419

          -----------------
          DENSITY CONVERGED
          -----------------
     TIME TO FORM FOCK OPERATORS=     320.5 SECONDS (       6.2 SEC/ITER)
     FOCK TIME ON FIRST ITERATION=       6.8, LAST ITERATION=       3.9
     TIME TO SOLVE SCF EQUATIONS=      44.3 SECONDS (        .9 SEC/ITER)
 WARNING: SWAPPED  2 BETA  ORBITAL(S) AFTER FINAL CANONICALIZATION
          SO ORBITAL ORDER MATCHES THE ROHF DENSITY

 FINAL RO-B3LYP ENERGY IS     -253.5606635961 AFTER  52 ITERATIONS
 DFT EXCHANGE + CORRELATION ENERGY =       -35.3008666412
 TOTAL ELECTRON NUMBER             =        74.0000230121

          --------------------
          SPIN SZ   =    2.000
          S-SQUARED =    6.000
          --------------------

          ------------
          EIGENVECTORS
          ------------

                      1          2          3          4          5
                   -3.6985    -2.4224    -2.4212    -2.3909    -1.4953
                     A          A          A          A          A   
    1  FE 1  S    1.005919    .000000    .000000    .000000    .004108
    2  FE 1  S     .015869    .000000    .000000    .000000    .023439
    3  FE 1  S    -.003095    .000000    .000000    .000000   -.001981
    4  FE 1  S    -.001840    .000000    .000000    .000000   -.000157
    5  FE 1  S    -.003503    .000000    .000000    .000000   -.018409
    6  FE 1  X     .000000   -.000399   1.001845    .000012    .000000
    7  FE 1  Y     .000000    .717677    .000277    .699673    .000000
    8  FE 1  Z     .000000   -.699071   -.000287    .718307    .000005
    9  FE 1  X     .000000   -.000002    .003769    .000000    .000000
   10  FE 1  Y     .000000    .002464    .000001    .003163    .000000
   11  FE 1  Z     .000000   -.002384   -.000001    .003233    .000004
   12  FE 1  X     .000000   -.000002    .004561    .000000    .000000
   13  FE 1  Y     .000000    .003082    .000001    .004322    .000000
   14  FE 1  Z     .000000   -.002993   -.000001    .004429    .000002
   15  FE 1  X     .000000    .000000    .000949    .000000    .000000
   16  FE 1  Y     .000000    .000622    .000000    .002060    .000000
   17  FE 1  Z     .000000   -.000606    .000000    .002116    .000000
   18  FE 1  X     .000000    .000003   -.006448    .000000    .000000
   19  FE 1  Y     .000000   -.005387   -.000002   -.006299    .000003
   20  FE 1  Z     .000000    .005277    .000002   -.006498   -.000026
   21  FE 1 XX    -.000130    .000000    .000000    .000000   -.003005
   22  FE 1 YY     .000057    .000000    .000000    .000000    .001622
   23  FE 1 ZZ     .000072    .000000    .000000    .000000    .001383
   24  FE 1 XY     .000000    .000000    .000000    .000000    .000000
   25  FE 1 XZ     .000000    .000000    .000000    .000000    .000000
   26  FE 1 YZ     .001570    .000000    .000000    .000000   -.000040
   27  FE 1 XX     .003071    .000000    .000000    .000000   -.003887
   28  FE 1 YY    -.001399    .000000    .000000    .000000    .002088
   29  FE 1 ZZ    -.001672    .000000    .000000    .000000    .001800
   30  FE 1 XY     .000000    .000000    .000000    .000000    .000000
   31  FE 1 XZ     .000000    .000000    .000000    .000000    .000000
   32  FE 1 YZ    -.003207    .000000    .000000    .000000   -.000027
   33  FE 1 XX    -.001018    .000000    .000000    .000000    .001675
   34  FE 1 YY     .000463    .000000    .000000    .000000   -.000899
   35  FE 1 ZZ     .000555    .000000    .000000    .000000   -.000776
   36  FE 1 XY     .000000    .000000    .000000    .000000    .000000
   37  FE 1 XZ     .000000    .000000    .000000    .000000    .000000
   38  FE 1 YZ     .000737    .000000    .000000    .000000    .000012
   39  FE 1 XX     .000316    .000000    .000000    .000000    .002133
   40  FE 1 YY    -.000144    .000000    .000000    .000000   -.001221
   41  FE 1 ZZ    -.000172    .000000    .000000    .000000   -.000912
   42  FE 1 XY     .000000    .000000    .000000    .000000    .000000
   43  FE 1 XZ     .000000    .000000    .000000    .000000    .000000
   44  FE 1 YZ    -.000069    .000000    .000000    .000000    .000891
   45  FE 1 XXX    .000000    .000001   -.001864    .000000    .000000
   46  FE 1 YYY    .000000    .001065    .000000   -.000411    .000000
   47  FE 1 ZZZ    .000000   -.001173    .000000   -.000287    .000000
   48  FE 1 XXY    .000000    .000264    .000000   -.001336    .000000
   49  FE 1 XXZ    .000000   -.000253    .000000   -.001376    .000000
   50  FE 1 YYX    .000000    .000000    .001224    .000000    .000000
   51  FE 1 YYZ    .000000    .001827    .000001    .001761    .000000
   52  FE 1 ZZX    .000000    .000000    .001277    .000000    .000000
   53  FE 1 ZZY    .000000   -.001693   -.000001    .001888    .000000
   54  FE 1 XYZ    .000000    .000000    .000947    .000000    .000000
   55  FE 1 XXX    .000000    .000000   -.001261    .000000    .000000
   56  FE 1 YYY    .000000    .000605    .000000   -.000230    .000000
   57  FE 1 ZZZ    .000000   -.000675    .000000   -.000152    .000000
   58  FE 1 XXY    .000000    .000307    .000000   -.000844    .000000
   59  FE 1 XXZ    .000000   -.000296    .000000   -.000870    .000000
   60  FE 1 YYX    .000000    .000000    .000833    .000000    .000000
   61  FE 1 YYZ    .000000    .001201    .000000    .001074    .000000
   62  FE 1 ZZX    .000000    .000000    .000858    .000000    .000000
   63  FE 1 ZZY    .000000   -.001119    .000000    .001154    .000000
   64  FE 1 XYZ    .000000    .000000    .000439    .000000    .000000
   65  FE 1XXXX   -.000158    .000000    .000000    .000000   -.000001
   66  FE 1YYYY   -.000038    .000000    .000000    .000000   -.000001
   67  FE 1ZZZZ   -.000032    .000000    .000000    .000000   -.000001
   68  FE 1XXXY    .000000    .000000    .000000    .000000    .000000
   69  FE 1XXXZ    .000000    .000000    .000000    .000000    .000000
   70  FE 1YYYX    .000000    .000000    .000000    .000000    .000000
   71  FE 1YYYZ    .000076    .000000    .000000    .000000    .000000
   72  FE 1ZZZX    .000000    .000000    .000000    .000000    .000000
   73  FE 1ZZZY    .000073    .000000    .000000    .000000    .000000
   74  FE 1XXYY    .000143    .000000    .000000    .000000    .000001
   75  FE 1XXZZ    .000134    .000000    .000000    .000000    .000001
   76  FE 1YYZZ   -.000077    .000000    .000000    .000000    .000001
   77  FE 1XXYZ   -.000200    .000000    .000000    .000000    .000000
   78  FE 1YYXZ    .000000    .000000    .000000    .000000    .000000
   79  FE 1ZZXY    .000000    .000000    .000000    .000000    .000000
   80  C  2  S     .001482   -.003322   -.000001    .004105    .212437
   81  C  2  S     .000106    .000197    .000000   -.000209   -.007334
   82  C  2  S    -.006090   -.001744   -.000001    .002623   -.071211
   83  C  2  X     .000000    .000000    .000389    .000000   -.000006
   84  C  2  Y    -.000133    .000182    .000000    .000334   -.005801
   85  C  2  Z    -.000553    .003027    .000001   -.003741    .185394
   86  C  2  X     .000000    .000000    .000598    .000000    .000002
   87  C  2  Y     .000475    .000435    .000000    .000528    .001380
   88  C  2  Z     .002661    .000035    .000000   -.000273   -.052856
   89  C  2  X     .000000    .000000    .000047    .000000    .000001
   90  C  2  Y    -.000030    .000094    .000000    .000033    .001186
   91  C  2  Z    -.001594    .000436    .000000   -.000193   -.036152
   92  C  2 XX     .000617    .000124    .000000   -.000202   -.004088
   93  C  2 YY     .000645    .000146    .000000   -.000186   -.003917
   94  C  2 ZZ    -.001262   -.000269    .000000    .000388    .008005
   95  C  2 XY     .000000    .000000   -.000025    .000000    .000000
   96  C  2 XZ     .000000    .000000   -.000335    .000000    .000000
   97  C  2 YZ    -.000279   -.000091    .000000   -.000343   -.000477
   98  C  2 XX    -.000037    .000039    .000000   -.000029   -.006398
   99  C  2 YY    -.000041    .000034    .000000   -.000032   -.006428
  100  C  2 ZZ     .000077   -.000073    .000000    .000061    .012827
  101  C  2 XY     .000000    .000000    .000006    .000000    .000000
  102  C  2 XZ     .000000    .000000    .000005    .000000   -.000001
  103  C  2 YZ     .000054   -.000016    .000000    .000021   -.000683
  104  C  2 XXX    .000000    .000000   -.000062    .000000    .000000
  105  C  2 YYY    .000008   -.000048    .000000   -.000042    .000221
  106  C  2 ZZZ   -.000210    .000232    .000000   -.000205    .004859
  107  C  2 XXY    .000008   -.000018    .000000   -.000015    .000103
  108  C  2 XXZ    .000143   -.000148    .000000    .000139   -.003272
  109  C  2 YYX    .000000    .000000   -.000027    .000000    .000000
  110  C  2 YYZ    .000140   -.000163    .000000    .000135   -.003247
  111  C  2 ZZX    .000000    .000000    .000110    .000000    .000000
  112  C  2 ZZY   -.000018    .000082    .000000    .000072   -.000400
  113  C  2 XYZ    .000000    .000000    .000004    .000000    .000000
  114  O  3  S     .001006    .000109    .000000   -.000333    .386341
  115  O  3  S    -.000024    .000007    .000000   -.000011   -.003710
  116  O  3  S     .000973   -.000005    .000000   -.000118   -.069375
  117  O  3  X     .000000    .000000   -.000014    .000000    .000004
  118  O  3  Y    -.000014    .000062    .000000   -.000065    .004612
  119  O  3  Z     .000310   -.000663    .000000    .000911   -.151837
  120  O  3  X     .000000    .000000   -.000224    .000000   -.000001
  121  O  3  Y    -.000059   -.000209    .000000   -.000166   -.001318
  122  O  3  Z    -.000819   -.000047    .000000    .000151    .044972
  123  O  3  X     .000000    .000000    .000100    .000000   -.000001
  124  O  3  Y     .000247   -.000013    .000000    .000132   -.000622
  125  O  3  Z    -.000730    .000252    .000000   -.000187    .020002
  126  O  3 XX    -.000066    .000025    .000000   -.000007   -.003394
  127  O  3 YY    -.000057    .000018    .000000   -.000006   -.003403
  128  O  3 ZZ     .000124   -.000044    .000000    .000013    .006798
  129  O  3 XY     .000000    .000000    .000004    .000000    .000000
  130  O  3 XZ     .000000    .000000    .000010    .000000    .000000
  131  O  3 YZ    -.000104    .000062    .000000   -.000024   -.000367
  132  O  3 XX     .000001   -.000001    .000000    .000002   -.002109
  133  O  3 YY    -.000001    .000000    .000000    .000002   -.002093
  134  O  3 ZZ     .000000    .000001    .000000   -.000004    .004203
  135  O  3 XY     .000000    .000000   -.000001    .000000    .000000
  136  O  3 XZ     .000000    .000000    .000002    .000000    .000000
  137  O  3 YZ     .000012   -.000006    .000000    .000004   -.000221
  138  O  3 XXX    .000000    .000000    .000010    .000000    .000000
  139  O  3 YYY   -.000004    .000011    .000000    .000005   -.000102
  140  O  3 ZZZ    .000029    .000004    .000000   -.000003   -.002235
  141  O  3 XXY   -.000002    .000005    .000000    .000002   -.000046
  142  O  3 XXZ   -.000019   -.000003    .000000    .000002    .001502
  143  O  3 YYX    .000000    .000000    .000004    .000000    .000000
  144  O  3 YYZ   -.000020   -.000002    .000000    .000003    .001496
  145  O  3 ZZX    .000000    .000000   -.000018    .000000    .000000
  146  O  3 ZZY    .000007   -.000019    .000000   -.000009    .000183
  147  O  3 XYZ    .000000    .000000    .000001    .000000    .000000
  148  C  4  S     .002220   -.000002    .005556    .000000    .025610
  149  C  4  S     .000225    .000000   -.000240    .000000   -.000671
  150  C  4  S    -.010038   -.000001    .001523    .000001    .001645
  151  C  4  X    -.000999    .000002   -.004819    .000000    .020023
  152  C  4  Y     .000000    .000338    .000000    .000299    .000000
  153  C  4  Z     .000000   -.000328    .000000    .000307    .000000
  154  C  4  X     .004070    .000000    .000497    .000000   -.005809
  155  C  4  Y     .000000    .000502    .000000    .000516    .000000
  156  C  4  Z     .000000   -.000491    .000000    .000532    .000002
  157  C  4  X    -.001857    .000000   -.000526    .000000    .000604
  158  C  4  Y     .000000    .000020    .000000    .000085    .000000
  159  C  4  Z     .000000   -.000019    .000000    .000087    .000000
  160  C  4 XX    -.002057    .000000    .000129    .000000    .003046
  161  C  4 YY     .001028    .000000   -.000064    .000000   -.001515
  162  C  4 ZZ     .001029    .000000   -.000065    .000000   -.001531
  163  C  4 XY     .000000   -.000385    .000000   -.000197    .000000
  164  C  4 XZ     .000000    .000378    .000000   -.000206   -.000001
  165  C  4 YZ     .000086    .000000   -.000033    .000000   -.000023
  166  C  4 XX     .000200    .000000    .000215    .000000    .001591
  167  C  4 YY    -.000100    .000000   -.000107    .000000   -.000798
  168  C  4 ZZ    -.000100    .000000   -.000107    .000000   -.000793
  169  C  4 XY     .000000    .000014    .000000   -.000008    .000000
  170  C  4 XZ     .000000   -.000014    .000000   -.000007    .000000
  171  C  4 YZ    -.000026    .000000    .000008    .000000    .000007
  172  C  4 XXX   -.000201    .000000   -.000307    .000000    .000782
  173  C  4 YYY    .000000   -.000045    .000000   -.000047    .000000
  174  C  4 ZZZ    .000000    .000044    .000000   -.000048    .000000
  175  C  4 XXY    .000000    .000079    .000000    .000081    .000000
  176  C  4 XXZ    .000000   -.000076    .000000    .000082    .000000
  177  C  4 YYX    .000135    .000000    .000206    .000000   -.000525
  178  C  4 YYZ    .000000    .000018    .000000   -.000017    .000000
  179  C  4 ZZX    .000135    .000000    .000206    .000000   -.000524
  180  C  4 ZZY    .000000   -.000018    .000000   -.000017    .000000
  181  C  4 XYZ   -.000012    .000000    .000008    .000000    .000001
  182  O  5  S     .001344    .000000   -.000135    .000000    .042467
  183  O  5  S    -.000012    .000000    .000004    .000000   -.000364
  184  O  5  S     .001728    .000000    .000049    .000000   -.014988
  185  O  5  X     .000470    .000000    .001011    .000000   -.017273
  186  O  5  Y     .000000    .000002    .000000    .000026    .000000
  187  O  5  Z     .000000   -.000003    .000000    .000027    .000000
  188  O  5  X    -.001299    .000000   -.000010    .000000    .008685
  189  O  5  Y     .000000   -.000148    .000000   -.000217    .000000
  190  O  5  Z     .000000    .000144    .000000   -.000222    .000000
  191  O  5  X    -.000934    .000000   -.000326    .000000    .004139
  192  O  5  Y     .000000    .000137    .000000    .000052    .000000
  193  O  5  Z     .000000   -.000135    .000000    .000055    .000000
  194  O  5 XX     .000111    .000000    .000011    .000000   -.000023
  195  O  5 YY    -.000056    .000000   -.000005    .000000    .000010
  196  O  5 ZZ    -.000055    .000000   -.000005    .000000    .000013
  197  O  5 XY     .000000   -.000031    .000000    .000027    .000000
  198  O  5 XZ     .000000    .000031    .000000    .000027    .000000
  199  O  5 YZ    -.000013    .000000    .000006    .000000    .000005
  200  O  5 XX    -.000008    .000000   -.000005    .000000    .000520
  201  O  5 YY     .000004    .000000    .000002    .000000   -.000260
  202  O  5 ZZ     .000004    .000000    .000002    .000000   -.000261
  203  O  5 XY     .000000    .000006    .000000   -.000003    .000000
  204  O  5 XZ     .000000   -.000006    .000000   -.000003    .000000
  205  O  5 YZ     .000003    .000000   -.000001    .000000    .000000
  206  O  5 XXX    .000063    .000000    .000017    .000000   -.000182
  207  O  5 YYY    .000000    .000006    .000000    .000007    .000000
  208  O  5 ZZZ    .000000   -.000006    .000000    .000008    .000000
  209  O  5 XXY    .000000   -.000011    .000000   -.000013    .000000
  210  O  5 XXZ    .000000    .000010    .000000   -.000013    .000000
  211  O  5 YYX   -.000042    .000000   -.000011    .000000    .000122
  212  O  5 YYZ    .000000   -.000002    .000000    .000003    .000000
  213  O  5 ZZX   -.000043    .000000   -.000011    .000000    .000122
  214  O  5 ZZY    .000000    .000003    .000000    .000003    .000000
  215  O  5 XYZ    .000001    .000000    .000000    .000000   -.000001
  216  C  6  S     .002220    .000002   -.005556    .000000    .025614
  217  C  6  S     .000225    .000000    .000240    .000000   -.000671
  218  C  6  S    -.010038    .000000   -.001522    .000000    .001643
  219  C  6  X     .001000    .000002   -.004820    .000000   -.020027
  220  C  6  Y     .000000    .000338    .000000    .000299    .000000
  221  C  6  Z     .000000   -.000328    .000000    .000307    .000000
  222  C  6  X    -.004070    .000000    .000497    .000000    .005811
  223  C  6  Y     .000000    .000502    .000000    .000516    .000000
  224  C  6  Z     .000000   -.000491    .000000    .000532    .000002
  225  C  6  X     .001857    .000000   -.000526    .000000   -.000603
  226  C  6  Y     .000000    .000020    .000000    .000085    .000000
  227  C  6  Z     .000000   -.000019    .000000    .000087    .000000
  228  C  6 XX    -.002057    .000000   -.000129    .000000    .003046
  229  C  6 YY     .001028    .000000    .000064    .000000   -.001515
  230  C  6 ZZ     .001029    .000000    .000065    .000000   -.001531
  231  C  6 XY     .000000    .000385    .000000    .000197    .000000
  232  C  6 XZ     .000000   -.000378    .000000    .000206    .000001
  233  C  6 YZ     .000086    .000000    .000033    .000000   -.000023
  234  C  6 XX     .000200    .000000   -.000215    .000000    .001591
  235  C  6 YY    -.000100    .000000    .000107    .000000   -.000798
  236  C  6 ZZ    -.000100    .000000    .000107    .000000   -.000793
  237  C  6 XY     .000000   -.000014    .000000    .000008    .000000
  238  C  6 XZ     .000000    .000014    .000000    .000007    .000000
  239  C  6 YZ    -.000026    .000000   -.000008    .000000    .000007
  240  C  6 XXX    .000201    .000000   -.000307    .000000   -.000782
  241  C  6 YYY    .000000   -.000045    .000000   -.000047    .000000
  242  C  6 ZZZ    .000000    .000044    .000000   -.000048    .000000
  243  C  6 XXY    .000000    .000079    .000000    .000081    .000000
  244  C  6 XXZ    .000000   -.000076    .000000    .000082    .000000
  245  C  6 YYX   -.000135    .000000    .000206    .000000    .000525
  246  C  6 YYZ    .000000    .000018    .000000   -.000017    .000000
  247  C  6 ZZX   -.000135    .000000    .000206    .000000    .000524
  248  C  6 ZZY    .000000   -.000018    .000000   -.000017    .000000
  249  C  6 XYZ    .000012    .000000    .000008    .000000   -.000001
  250  O  7  S     .001344    .000000    .000135    .000000    .042475
  251  O  7  S    -.000012    .000000   -.000004    .000000   -.000364
  252  O  7  S     .001728    .000000   -.000050    .000000   -.014989
  253  O  7  X    -.000470    .000000    .001011    .000000    .017276
  254  O  7  Y     .000000    .000002    .000000    .000026    .000000
  255  O  7  Z     .000000   -.000003    .000000    .000027    .000000
  256  O  7  X     .001299    .000000   -.000010    .000000   -.008685
  257  O  7  Y     .000000   -.000148    .000000   -.000217    .000000
  258  O  7  Z     .000000    .000144    .000000   -.000222    .000000
  259  O  7  X     .000934    .000000   -.000326    .000000   -.004139
  260  O  7  Y     .000000    .000137    .000000    .000052    .000000
  261  O  7  Z     .000000   -.000135    .000000    .000055    .000000
  262  O  7 XX     .000111    .000000   -.000011    .000000   -.000023
  263  O  7 YY    -.000056    .000000    .000005    .000000    .000010
  264  O  7 ZZ    -.000055    .000000    .000005    .000000    .000013
  265  O  7 XY     .000000    .000031    .000000   -.000027    .000000
  266  O  7 XZ     .000000   -.000031    .000000   -.000027    .000000
  267  O  7 YZ    -.000013    .000000   -.000006    .000000    .000005
  268  O  7 XX    -.000008    .000000    .000005    .000000    .000521
  269  O  7 YY     .000004    .000000   -.000002    .000000   -.000260
  270  O  7 ZZ     .000004    .000000   -.000002    .000000   -.000261
  271  O  7 XY     .000000   -.000006    .000000    .000003    .000000
  272  O  7 XZ     .000000    .000006    .000000    .000003    .000000
  273  O  7 YZ     .000003    .000000    .000001    .000000    .000000
  274  O  7 XXX   -.000063    .000000    .000017    .000000    .000182
  275  O  7 YYY    .000000    .000006    .000000    .000007    .000000
  276  O  7 ZZZ    .000000   -.000006    .000000    .000008    .000000
  277  O  7 XXY    .000000   -.000011    .000000   -.000013    .000000
  278  O  7 XXZ    .000000    .000010    .000000   -.000013    .000000
  279  O  7 YYX    .000042    .000000   -.000011    .000000   -.000122
  280  O  7 YYZ    .000000   -.000002    .000000    .000003    .000000
  281  O  7 ZZX    .000043    .000000   -.000011    .000000   -.000122
  282  O  7 ZZY    .000000    .000003    .000000    .000003    .000000
  283  O  7 XYZ   -.000001    .000000    .000000    .000000    .000001
  284  C  8  S     .001482    .003322    .000001   -.004105    .212988
  285  C  8  S     .000106   -.000197    .000000    .000209   -.007353
  286  C  8  S    -.006090    .001744    .000001   -.002623   -.071445
  287  C  8  X     .000000    .000000    .000389    .000000    .000005
  288  C  8  Y     .000133    .000182    .000000    .000334    .005817
  289  C  8  Z     .000553    .003027    .000001   -.003741   -.185881
  290  C  8  X     .000000    .000000    .000598    .000000   -.000001
  291  C  8  Y    -.000475    .000435    .000000    .000528   -.001385
  292  C  8  Z    -.002661    .000035    .000000   -.000273    .052992
  293  C  8  X     .000000    .000000    .000047    .000000   -.000001
  294  C  8  Y     .000030    .000094    .000000    .000033   -.001190
  295  C  8  Z     .001594    .000436    .000000   -.000193    .036262
  296  C  8 XX     .000617   -.000124    .000000    .000202   -.004095
  297  C  8 YY     .000645   -.000146    .000000    .000186   -.003925
  298  C  8 ZZ    -.001262    .000269    .000000   -.000388    .008020
  299  C  8 XY     .000000    .000000    .000025    .000000    .000000
  300  C  8 XZ     .000000    .000000    .000335    .000000    .000000
  301  C  8 YZ    -.000279    .000091    .000000    .000343   -.000478
  302  C  8 XX    -.000037   -.000039    .000000    .000029   -.006415
  303  C  8 YY    -.000041   -.000034    .000000    .000032   -.006445
  304  C  8 ZZ     .000077    .000073    .000000   -.000061    .012859
  305  C  8 XY     .000000    .000000   -.000006    .000000    .000000
  306  C  8 XZ     .000000    .000000   -.000005    .000000   -.000001
  307  C  8 YZ     .000054    .000016    .000000   -.000021   -.000684
  308  C  8 XXX    .000000    .000000   -.000062    .000000    .000000
  309  C  8 YYY   -.000008   -.000048    .000000   -.000042   -.000221
  310  C  8 ZZZ    .000210    .000232    .000000   -.000205   -.004870
  311  C  8 XXY   -.000008   -.000018    .000000   -.000015   -.000104
  312  C  8 XXZ   -.000143   -.000148    .000000    .000139    .003279
  313  C  8 YYX    .000000    .000000   -.000027    .000000    .000000
  314  C  8 YYZ   -.000140   -.000163    .000000    .000135    .003255
  315  C  8 ZZX    .000000    .000000    .000110    .000000    .000000
  316  C  8 ZZY    .000018    .000082    .000000    .000072    .000400
  317  C  8 XYZ    .000000    .000000    .000004    .000000    .000000
  318  O  9  S     .001006   -.000109    .000000    .000333    .387356
  319  O  9  S    -.000024   -.000007    .000000    .000011   -.003720
  320  O  9  S     .000973    .000005    .000000    .000118   -.069529
  321  O  9  X     .000000    .000000   -.000014    .000000   -.000004
  322  O  9  Y     .000014    .000062    .000000   -.000065   -.004624
  323  O  9  Z    -.000310   -.000663    .000000    .000911    .152233
  324  O  9  X     .000000    .000000   -.000224    .000000    .000001
  325  O  9  Y     .000059   -.000209    .000000   -.000166    .001321
  326  O  9  Z     .000819   -.000047    .000000    .000151   -.045076
  327  O  9  X     .000000    .000000    .000100    .000000    .000000
  328  O  9  Y    -.000247   -.000013    .000000    .000132    .000624
  329  O  9  Z     .000730    .000252    .000000   -.000187   -.020047
  330  O  9 XX    -.000066   -.000025    .000000    .000007   -.003405
  331  O  9 YY    -.000057   -.000018    .000000    .000006   -.003414
  332  O  9 ZZ     .000124    .000044    .000000   -.000013    .006819
  333  O  9 XY     .000000    .000000   -.000004    .000000    .000000
  334  O  9 XZ     .000000    .000000   -.000010    .000000    .000000
  335  O  9 YZ    -.000104   -.000062    .000000    .000024   -.000368
  336  O  9 XX     .000001    .000001    .000000   -.000002   -.002115
  337  O  9 YY    -.000001    .000000    .000000   -.000002   -.002099
  338  O  9 ZZ     .000000   -.000001    .000000    .000004    .004214
  339  O  9 XY     .000000    .000000    .000001    .000000    .000000
  340  O  9 XZ     .000000    .000000   -.000002    .000000    .000000
  341  O  9 YZ     .000012    .000006    .000000   -.000004   -.000221
  342  O  9 XXX    .000000    .000000    .000010    .000000    .000000
  343  O  9 YYY    .000004    .000011    .000000    .000005    .000102
  344  O  9 ZZZ   -.000029    .000004    .000000   -.000003    .002241
  345  O  9 XXY    .000002    .000005    .000000    .000002    .000046
  346  O  9 XXZ    .000019   -.000003    .000000    .000002   -.001506
  347  O  9 YYX    .000000    .000000    .000004    .000000    .000000
  348  O  9 YYZ    .000020   -.000002    .000000    .000003   -.001500
  349  O  9 ZZX    .000000    .000000   -.000018    .000000    .000000
  350  O  9 ZZY   -.000007   -.000019    .000000   -.000009   -.000183
  351  O  9 XYZ    .000000    .000000    .000001    .000000    .000000
[...]
 1427: 405.332 + 0.00 = 405.332
 1428: 405.332 + 0.00 = 405.332
 1429: 405.332 + 0.00 = 405.332
 1430: 405.332 + 0.00 = 405.332
 1431: 405.332 + 0.00 = 405.332
 1432: 405.330 + 0.00 = 405.330
 1433: 405.330 + 0.00 = 405.330
 1434: 405.330 + 0.00 = 405.330
 1435: 405.330 + 0.00 = 405.330
 1436: 405.330 + 0.00 = 405.330
 1437: 405.330 + 0.00 = 405.330
 1438: 405.330 + 0.00 = 405.330
 1439: 405.330 + 0.00 = 405.330
 1440: 405.334 + 0.00 = 405.334
 1441: 405.334 + 0.00 = 405.334
 1442: 405.334 + 0.00 = 405.334
 1443: 405.334 + 0.00 = 405.334
 1444: 405.334 + 0.00 = 405.334
 1445: 405.334 + 0.00 = 405.334
 1446: 405.334 + 0.00 = 405.334
 1447: 405.334 + 0.00 = 405.334
 1448: 405.334 + 0.00 = 405.334
 1449: 405.334 + 0.00 = 405.334
 1450: 405.334 + 0.00 = 405.334
 1451: 405.334 + 0.00 = 405.334
 1452: 405.334 + 0.00 = 405.334
 1453: 405.334 + 0.00 = 405.334
 1454: 405.334 + 0.00 = 405.334
 1455: 405.334 + 0.00 = 405.334
 1456: 405.331 + 0.00 = 405.331
 1457: 405.331 + 0.00 = 405.331
 1458: 405.331 + 0.00 = 405.331
 1459: 405.331 + 0.00 = 405.331
 1460: 405.331 + 0.00 = 405.331
 1461: 405.331 + 0.00 = 405.331
 1462: 405.331 + 0.00 = 405.331
 1463: 405.331 + 0.00 = 405.331
 1464: 405.331 + 0.00 = 405.331
 1465: 405.331 + 0.00 = 405.331
 1466: 405.331 + 0.00 = 405.331
 1467: 405.331 + 0.00 = 405.331
 1468: 405.331 + 0.00 = 405.331
 1469: 405.331 + 0.00 = 405.331
 1470: 405.331 + 0.00 = 405.331
 1471: 405.331 + 0.00 = 405.331
 1472: 405.332 + 0.00 = 405.332
 1473: 405.332 + 0.00 = 405.332
 1474: 405.332 + 0.00 = 405.332
 1475: 405.332 + 0.00 = 405.332
 1476: 405.332 + 0.00 = 405.332
 1477: 405.332 + 0.00 = 405.332
 1478: 405.332 + 0.00 = 405.332
 1479: 405.332 + 0.00 = 405.332
 1480: 405.329 + 0.00 = 405.329
 1481: 405.329 + 0.00 = 405.329
 1482: 405.329 + 0.00 = 405.329
 1483: 405.329 + 0.00 = 405.329
 1484: 405.329 + 0.00 = 405.329
 1485: 405.329 + 0.00 = 405.329
 1486: 405.329 + 0.00 = 405.329
 1487: 405.329 + 0.00 = 405.329
 1488: 405.333 + 0.00 = 405.333
 1489: 405.333 + 0.00 = 405.333
 1490: 405.333 + 0.00 = 405.333
 1491: 405.333 + 0.00 = 405.333
 1492: 405.333 + 0.00 = 405.333
 1493: 405.333 + 0.00 = 405.333
 1494: 405.333 + 0.00 = 405.333
 1495: 405.333 + 0.00 = 405.333
 1496: 405.331 + 0.00 = 405.331
 1497: 405.331 + 0.00 = 405.331
 1498: 405.331 + 0.00 = 405.331
 1499: 405.331 + 0.00 = 405.331
 1500: 405.331 + 0.00 = 405.331
 1501: 405.331 + 0.00 = 405.331
 1502: 405.331 + 0.00 = 405.331
 1503: 405.331 + 0.00 = 405.331
 1504: 405.332 + 0.00 = 405.332
 1505: 405.332 + 0.00 = 405.332
 1506: 405.332 + 0.00 = 405.332
 1507: 405.332 + 0.00 = 405.332
 1508: 405.332 + 0.00 = 405.332
 1509: 405.332 + 0.00 = 405.332
 1510: 405.332 + 0.00 = 405.332
 1511: 405.332 + 0.00 = 405.332
 1512: 405.334 + 0.00 = 405.334
 1513: 405.334 + 0.00 = 405.334
 1514: 405.334 + 0.00 = 405.334
 1515: 405.334 + 0.00 = 405.334
 1516: 405.334 + 0.00 = 405.334
 1517: 405.334 + 0.00 = 405.334
 1518: 405.334 + 0.00 = 405.334
 1519: 405.334 + 0.00 = 405.334
 1520: 405.332 + 0.00 = 405.332
 1521: 405.332 + 0.00 = 405.332
 1522: 405.332 + 0.00 = 405.332
 1523: 405.332 + 0.00 = 405.332
 1524: 405.332 + 0.00 = 405.332
 1525: 405.332 + 0.00 = 405.332
 1526: 405.332 + 0.00 = 405.332
 1527: 405.332 + 0.00 = 405.332
 1528: 405.332 + 0.00 = 405.332
 1529: 405.332 + 0.00 = 405.332
 1530: 405.332 + 0.00 = 405.332
 1531: 405.332 + 0.00 = 405.332
 1532: 405.332 + 0.00 = 405.332
 1533: 405.332 + 0.00 = 405.332
 1534: 405.332 + 0.00 = 405.332
 1535: 405.332 + 0.00 = 405.332
 1536: 405.331 + 0.00 = 405.331
 1537: 405.331 + 0.00 = 405.331
 1538: 405.331 + 0.00 = 405.331
 1539: 405.331 + 0.00 = 405.331
 1540: 405.331 + 0.00 = 405.331
 1541: 405.331 + 0.00 = 405.331
 1542: 405.331 + 0.00 = 405.331
 1543: 405.331 + 0.00 = 405.331
 1544: 405.330 + 0.00 = 405.330
 1545: 405.330 + 0.00 = 405.330
 1546: 405.330 + 0.00 = 405.330
 1547: 405.330 + 0.00 = 405.330
 1548: 405.330 + 0.00 = 405.330
 1549: 405.330 + 0.00 = 405.330
 1550: 405.330 + 0.00 = 405.330
 1551: 405.330 + 0.00 = 405.330
 1552: 405.333 + 0.00 = 405.333
 1553: 405.333 + 0.00 = 405.333
 1554: 405.333 + 0.00 = 405.333
 1555: 405.333 + 0.00 = 405.333
 1556: 405.333 + 0.00 = 405.333
 1557: 405.333 + 0.00 = 405.333
 1558: 405.333 + 0.00 = 405.333
 1559: 405.333 + 0.00 = 405.333
 1560: 405.330 + 0.00 = 405.330
 1561: 405.330 + 0.00 = 405.330
 1562: 405.330 + 0.00 = 405.330
 1563: 405.330 + 0.00 = 405.330
 1564: 405.330 + 0.00 = 405.330
 1565: 405.330 + 0.00 = 405.330
 1566: 405.330 + 0.00 = 405.330
 1567: 405.330 + 0.00 = 405.330
 1568: 405.330 + 0.00 = 405.330
 1569: 405.330 + 0.00 = 405.330
 1570: 405.330 + 0.00 = 405.330
 1571: 405.330 + 0.00 = 405.330
 1572: 405.330 + 0.00 = 405.330
 1573: 405.330 + 0.00 = 405.330
 1574: 405.330 + 0.00 = 405.330
 1575: 405.330 + 0.00 = 405.330
 1576: 405.329 + 0.00 = 405.329
 1577: 405.329 + 0.00 = 405.329
 1578: 405.329 + 0.00 = 405.329
 1579: 405.329 + 0.00 = 405.329
 1580: 405.329 + 0.00 = 405.329
 1581: 405.329 + 0.00 = 405.329
 1582: 405.329 + 0.00 = 405.329
 1583: 405.329 + 0.00 = 405.329
 1584: 405.331 + 0.00 = 405.331
 1585: 405.331 + 0.00 = 405.331
 1586: 405.331 + 0.00 = 405.331
 1587: 405.331 + 0.00 = 405.331
 1588: 405.331 + 0.00 = 405.331
 1589: 405.331 + 0.00 = 405.331
 1590: 405.331 + 0.00 = 405.331
 1591: 405.331 + 0.00 = 405.331
 1592: 405.328 + 0.00 = 405.328
 1593: 405.328 + 0.00 = 405.328
 1594: 405.328 + 0.00 = 405.328
 1595: 405.328 + 0.00 = 405.328
 1596: 405.328 + 0.00 = 405.328
 1597: 405.328 + 0.00 = 405.328
 1598: 405.328 + 0.00 = 405.328
 1599: 405.328 + 0.00 = 405.328
 1600: 405.328 + 0.00 = 405.328
 1601: 405.328 + 0.00 = 405.328
 1602: 405.328 + 0.00 = 405.328
 1603: 405.328 + 0.00 = 405.328
 1604: 405.328 + 0.00 = 405.328
 1605: 405.328 + 0.00 = 405.328
 1606: 405.328 + 0.00 = 405.328
 1607: 405.328 + 0.00 = 405.328
 1608: 405.328 + 0.00 = 405.328
 1609: 405.328 + 0.00 = 405.328
 1610: 405.328 + 0.00 = 405.328
 1611: 405.328 + 0.00 = 405.328
 1612: 405.328 + 0.00 = 405.328
 1613: 405.328 + 0.00 = 405.328
 1614: 405.328 + 0.00 = 405.328
 1615: 405.328 + 0.00 = 405.328
 1616: 405.333 + 0.00 = 405.333
 1617: 405.333 + 0.00 = 405.333
 1618: 405.333 + 0.00 = 405.333
 1619: 405.333 + 0.00 = 405.333
 1620: 405.333 + 0.00 = 405.333
 1621: 405.333 + 0.00 = 405.333
 1622: 405.333 + 0.00 = 405.333
 1623: 405.333 + 0.00 = 405.333
 1624: 405.333 + 0.00 = 405.333
 1625: 405.333 + 0.00 = 405.333
 1626: 405.333 + 0.00 = 405.333
 1627: 405.333 + 0.00 = 405.333
 1628: 405.333 + 0.00 = 405.333
 1629: 405.333 + 0.00 = 405.333
 1630: 405.333 + 0.00 = 405.333
 1631: 405.333 + 0.00 = 405.333
 1632: 405.332 + 0.00 = 405.332
 1633: 405.332 + 0.00 = 405.332
 1634: 405.332 + 0.00 = 405.332
 1635: 405.332 + 0.00 = 405.332
 1636: 405.332 + 0.00 = 405.332
 1637: 405.332 + 0.00 = 405.332
 1638: 405.332 + 0.00 = 405.332
 1639: 405.332 + 0.00 = 405.332
 1640: 405.332 + 0.00 = 405.332
 1641: 405.332 + 0.00 = 405.332
 1642: 405.332 + 0.00 = 405.332
 1643: 405.332 + 0.00 = 405.332
 1644: 405.332 + 0.00 = 405.332
 1645: 405.332 + 0.00 = 405.332
 1646: 405.332 + 0.00 = 405.332
 1647: 405.332 + 0.00 = 405.332
 1648: 405.329 + 0.00 = 405.329
 1649: 405.329 + 0.00 = 405.329
 1650: 405.329 + 0.00 = 405.329
 1651: 405.329 + 0.00 = 405.329
 1652: 405.329 + 0.00 = 405.329
 1653: 405.329 + 0.00 = 405.329
 1654: 405.329 + 0.00 = 405.329
 1655: 405.329 + 0.00 = 405.329
 1656: 405.331 + 0.00 = 405.331
 1657: 405.331 + 0.00 = 405.331
 1658: 405.331 + 0.00 = 405.331
 1659: 405.331 + 0.00 = 405.331
 1660: 405.331 + 0.00 = 405.331
 1661: 405.331 + 0.00 = 405.331
 1662: 405.331 + 0.00 = 405.331
 1663: 405.331 + 0.00 = 405.331
 1664: 405.329 + 0.00 = 405.329
 1665: 405.329 + 0.00 = 405.329
 1666: 405.329 + 0.00 = 405.329
 1667: 405.329 + 0.00 = 405.329
 1668: 405.329 + 0.00 = 405.329
 1669: 405.329 + 0.00 = 405.329
 1670: 405.329 + 0.00 = 405.329
 1671: 405.329 + 0.00 = 405.329
 1672: 405.329 + 0.00 = 405.329
 1673: 405.329 + 0.00 = 405.329
 1674: 405.329 + 0.00 = 405.329
 1675: 405.329 + 0.00 = 405.329
 1676: 405.329 + 0.00 = 405.329
 1677: 405.329 + 0.00 = 405.329
 1678: 405.329 + 0.00 = 405.329
 1679: 405.329 + 0.00 = 405.329
 1680: 405.331 + 0.00 = 405.331
 1681: 405.331 + 0.00 = 405.331
 1682: 405.331 + 0.00 = 405.331
 1683: 405.331 + 0.00 = 405.331
 1684: 405.331 + 0.00 = 405.331
 1685: 405.331 + 0.00 = 405.331
 1686: 405.331 + 0.00 = 405.331
 1687: 405.331 + 0.00 = 405.331
 1688: 405.328 + 0.00 = 405.328
 1689: 405.328 + 0.00 = 405.328
 1690: 405.328 + 0.00 = 405.328
 1691: 405.328 + 0.00 = 405.328
 1692: 405.328 + 0.00 = 405.328
 1693: 405.328 + 0.00 = 405.328
 1694: 405.328 + 0.00 = 405.328
 1695: 405.328 + 0.00 = 405.328
 1696: 405.330 + 0.00 = 405.330
 1697: 405.330 + 0.00 = 405.330
 1698: 405.330 + 0.00 = 405.330
 1699: 405.330 + 0.00 = 405.330
 1700: 405.330 + 0.00 = 405.330
 1701: 405.330 + 0.00 = 405.330
 1702: 405.330 + 0.00 = 405.330
 1703: 405.330 + 0.00 = 405.330
 1704: 405.333 + 0.00 = 405.333
 1705: 405.333 + 0.00 = 405.333
 1706: 405.333 + 0.00 = 405.333
 1707: 405.333 + 0.00 = 405.333
 1708: 405.333 + 0.00 = 405.333
 1709: 405.333 + 0.00 = 405.333
 1710: 405.333 + 0.00 = 405.333
 1711: 405.333 + 0.00 = 405.333
 1712: 405.330 + 0.00 = 405.330
 1713: 405.330 + 0.00 = 405.330
 1714: 405.330 + 0.00 = 405.330
 1715: 405.330 + 0.00 = 405.330
 1716: 405.330 + 0.00 = 405.330
 1717: 405.330 + 0.00 = 405.330
 1718: 405.330 + 0.00 = 405.330
 1719: 405.330 + 0.00 = 405.330
 1720: 405.328 + 0.00 = 405.328
 1721: 405.328 + 0.00 = 405.328
 1722: 405.328 + 0.00 = 405.328
 1723: 405.328 + 0.00 = 405.328
 1724: 405.328 + 0.00 = 405.328
 1725: 405.328 + 0.00 = 405.328
 1726: 405.328 + 0.00 = 405.328
 1727: 405.328 + 0.00 = 405.328
 1728: 405.333 + 0.00 = 405.333
 1729: 405.333 + 0.00 = 405.333
 1730: 405.333 + 0.00 = 405.333
 1731: 405.333 + 0.00 = 405.333
 1732: 405.333 + 0.00 = 405.333
 1733: 405.333 + 0.00 = 405.333
 1734: 405.333 + 0.00 = 405.333
 1735: 405.333 + 0.00 = 405.333
 1736: 405.332 + 0.00 = 405.332
 1737: 405.332 + 0.00 = 405.332
 1738: 405.332 + 0.00 = 405.332
 1739: 405.332 + 0.00 = 405.332
 1740: 405.332 + 0.00 = 405.332
 1741: 405.332 + 0.00 = 405.332
 1742: 405.332 + 0.00 = 405.332
 1743: 405.332 + 0.00 = 405.332
 1744: 405.333 + 0.00 = 405.333
 1745: 405.333 + 0.00 = 405.333
 1746: 405.333 + 0.00 = 405.333
 1747: 405.333 + 0.00 = 405.333
 1748: 405.333 + 0.00 = 405.333
 1749: 405.333 + 0.00 = 405.333
 1750: 405.333 + 0.00 = 405.333
 1751: 405.333 + 0.00 = 405.333
 1752: 405.332 + 0.00 = 405.332
 1753: 405.332 + 0.00 = 405.332
 1754: 405.332 + 0.00 = 405.332
 1755: 405.332 + 0.00 = 405.332
 1756: 405.332 + 0.00 = 405.332
 1757: 405.332 + 0.00 = 405.332
 1758: 405.332 + 0.00 = 405.332
 1759: 405.332 + 0.00 = 405.332
 1760: 405.330 + 0.00 = 405.330
 1761: 405.330 + 0.00 = 405.330
 1762: 405.330 + 0.00 = 405.330
 1763: 405.330 + 0.00 = 405.330
 1764: 405.330 + 0.00 = 405.330
 1765: 405.330 + 0.00 = 405.330
 1766: 405.330 + 0.00 = 405.330
 1767: 405.330 + 0.00 = 405.330
 1768: 405.329 + 0.00 = 405.329
 1769: 405.329 + 0.00 = 405.329
 1770: 405.329 + 0.00 = 405.329
 1771: 405.329 + 0.00 = 405.329
 1772: 405.329 + 0.00 = 405.329
 1773: 405.329 + 0.00 = 405.329
 1774: 405.329 + 0.00 = 405.329
 1775: 405.329 + 0.00 = 405.329
 1776: 405.331 + 0.00 = 405.331
 1777: 405.331 + 0.00 = 405.331
 1778: 405.331 + 0.00 = 405.331
 1779: 405.331 + 0.00 = 405.331
 1780: 405.331 + 0.00 = 405.331
 1781: 405.331 + 0.00 = 405.331
 1782: 405.331 + 0.00 = 405.331
 1783: 405.331 + 0.00 = 405.331
 1784: 405.334 + 0.00 = 405.334
 1785: 405.334 + 0.00 = 405.334
 1786: 405.334 + 0.00 = 405.334
 1787: 405.334 + 0.00 = 405.334
 1788: 405.334 + 0.00 = 405.334
 1789: 405.334 + 0.00 = 405.334
 1790: 405.334 + 0.00 = 405.334
 1791: 405.334 + 0.00 = 405.334
 1792: 405.333 + 0.00 = 405.333
 1793: 405.333 + 0.00 = 405.333
 1794: 405.333 + 0.00 = 405.333
 1795: 405.333 + 0.00 = 405.333
 1796: 405.333 + 0.00 = 405.333
 1797: 405.333 + 0.00 = 405.333
 1798: 405.333 + 0.00 = 405.333
 1799: 405.333 + 0.00 = 405.333
 1800: 405.333 + 0.00 = 405.333
 1801: 405.333 + 0.00 = 405.333
 1802: 405.333 + 0.00 = 405.333
 1803: 405.333 + 0.00 = 405.333
 1804: 405.333 + 0.00 = 405.333
 1805: 405.333 + 0.00 = 405.333
 1806: 405.333 + 0.00 = 405.333
 1807: 405.333 + 0.00 = 405.333
 1808: 405.329 + 0.00 = 405.329
 1809: 405.329 + 0.00 = 405.329
 1810: 405.329 + 0.00 = 405.329
 1811: 405.329 + 0.00 = 405.329
 1812: 405.329 + 0.00 = 405.329
 1813: 405.329 + 0.00 = 405.329
 1814: 405.329 + 0.00 = 405.329
 1815: 405.329 + 0.00 = 405.329
 1816: 405.333 + 0.00 = 405.333
 1817: 405.333 + 0.00 = 405.333
 1818: 405.333 + 0.00 = 405.333
 1819: 405.333 + 0.00 = 405.333
 1820: 405.333 + 0.00 = 405.333
 1821: 405.333 + 0.00 = 405.333
 1822: 405.333 + 0.00 = 405.333
 1823: 405.333 + 0.00 = 405.333
 1824: 405.334 + 0.00 = 405.334
 1825: 405.334 + 0.00 = 405.334
 1826: 405.334 + 0.00 = 405.334
 1827: 405.334 + 0.00 = 405.334
 1828: 405.334 + 0.00 = 405.334
 1829: 405.334 + 0.00 = 405.334
 1830: 405.334 + 0.00 = 405.334
 1831: 405.334 + 0.00 = 405.334
 1832: 405.333 + 0.00 = 405.333
 1833: 405.333 + 0.00 = 405.333
 1834: 405.333 + 0.00 = 405.333
 1835: 405.333 + 0.00 = 405.333
 1836: 405.333 + 0.00 = 405.333
 1837: 405.333 + 0.00 = 405.333
 1838: 405.333 + 0.00 = 405.333
 1839: 405.333 + 0.00 = 405.333
 1840: 405.333 + 0.00 = 405.333
 1841: 405.333 + 0.00 = 405.333
 1842: 405.333 + 0.00 = 405.333
 1843: 405.333 + 0.00 = 405.333
 1844: 405.333 + 0.00 = 405.333
 1845: 405.333 + 0.00 = 405.333
 1846: 405.333 + 0.00 = 405.333
 1847: 405.333 + 0.00 = 405.333
 1848: 405.331 + 0.00 = 405.331
 1849: 405.331 + 0.00 = 405.331
 1850: 405.331 + 0.00 = 405.331
 1851: 405.331 + 0.00 = 405.331
 1852: 405.331 + 0.00 = 405.331
 1853: 405.331 + 0.00 = 405.331
 1854: 405.331 + 0.00 = 405.331
 1855: 405.331 + 0.00 = 405.331
 1856: 405.334 + 0.00 = 405.334
 1857: 405.334 + 0.00 = 405.334
 1858: 405.334 + 0.00 = 405.334
 1859: 405.334 + 0.00 = 405.334
 1860: 405.334 + 0.00 = 405.334
 1861: 405.334 + 0.00 = 405.334
 1862: 405.334 + 0.00 = 405.334
 1863: 405.334 + 0.00 = 405.334
 1864: 405.329 + 0.00 = 405.329
 1865: 405.329 + 0.00 = 405.329
 1866: 405.329 + 0.00 = 405.329
 1867: 405.329 + 0.00 = 405.329
 1868: 405.329 + 0.00 = 405.329
 1869: 405.329 + 0.00 = 405.329
 1870: 405.329 + 0.00 = 405.329
 1871: 405.329 + 0.00 = 405.329
 1872: 405.328 + 0.00 = 405.328
 1873: 405.328 + 0.00 = 405.328
 1874: 405.328 + 0.00 = 405.328
 1875: 405.328 + 0.00 = 405.328
 1876: 405.328 + 0.00 = 405.328
 1877: 405.328 + 0.00 = 405.328
 1878: 405.328 + 0.00 = 405.328
 1879: 405.328 + 0.00 = 405.328
 1880: 405.329 + 0.00 = 405.329
 1881: 405.329 + 0.00 = 405.329
 1882: 405.329 + 0.00 = 405.329
 1883: 405.329 + 0.00 = 405.329
 1884: 405.329 + 0.00 = 405.329
 1885: 405.329 + 0.00 = 405.329
 1886: 405.329 + 0.00 = 405.329
 1887: 405.329 + 0.00 = 405.329
 1888: 405.332 + 0.00 = 405.332
 1889: 405.332 + 0.00 = 405.332
 1890: 405.332 + 0.00 = 405.332
 1891: 405.332 + 0.00 = 405.332
 1892: 405.332 + 0.00 = 405.332
 1893: 405.332 + 0.00 = 405.332
 1894: 405.332 + 0.00 = 405.332
 1895: 405.332 + 0.00 = 405.332
 1896: 405.331 + 0.00 = 405.331
 1897: 405.331 + 0.00 = 405.331
 1898: 405.331 + 0.00 = 405.331
 1899: 405.331 + 0.00 = 405.331
 1900: 405.331 + 0.00 = 405.331
 1901: 405.331 + 0.00 = 405.331
 1902: 405.331 + 0.00 = 405.331
 1903: 405.331 + 0.00 = 405.331
 1904: 405.330 + 0.00 = 405.330
 1905: 405.330 + 0.00 = 405.330
 1906: 405.330 + 0.00 = 405.330
 1907: 405.330 + 0.00 = 405.330
 1908: 405.330 + 0.00 = 405.330
 1909: 405.330 + 0.00 = 405.330
 1910: 405.330 + 0.00 = 405.330
 1911: 405.330 + 0.00 = 405.330
 1912: 405.329 + 0.00 = 405.329
 1913: 405.329 + 0.00 = 405.329
 1914: 405.329 + 0.00 = 405.329
 1915: 405.329 + 0.00 = 405.329
 1916: 405.329 + 0.00 = 405.329
 1917: 405.329 + 0.00 = 405.329
 1918: 405.329 + 0.00 = 405.329
 1919: 405.329 + 0.00 = 405.329
 1920: 405.331 + 0.00 = 405.331
 1921: 405.331 + 0.00 = 405.331
 1922: 405.331 + 0.00 = 405.331
 1923: 405.331 + 0.00 = 405.331
 1924: 405.331 + 0.00 = 405.331
 1925: 405.331 + 0.00 = 405.331
 1926: 405.331 + 0.00 = 405.331
 1927: 405.331 + 0.00 = 405.331
 1928: 405.333 + 0.00 = 405.333
 1929: 405.333 + 0.00 = 405.333
 1930: 405.333 + 0.00 = 405.333
 1931: 405.333 + 0.00 = 405.333
 1932: 405.333 + 0.00 = 405.333
 1933: 405.333 + 0.00 = 405.333
 1934: 405.333 + 0.00 = 405.333
 1935: 405.333 + 0.00 = 405.333
 1936: 405.332 + 0.00 = 405.332
 1937: 405.332 + 0.00 = 405.332
 1938: 405.332 + 0.00 = 405.332
 1939: 405.332 + 0.00 = 405.332
 1940: 405.332 + 0.00 = 405.332
 1941: 405.332 + 0.00 = 405.332
 1942: 405.332 + 0.00 = 405.332
 1943: 405.332 + 0.00 = 405.332
 1944: 405.330 + 0.00 = 405.330
 1945: 405.330 + 0.00 = 405.330
 1946: 405.330 + 0.00 = 405.330
 1947: 405.330 + 0.00 = 405.330
 1948: 405.330 + 0.00 = 405.330
 1949: 405.330 + 0.00 = 405.330
 1950: 405.330 + 0.00 = 405.330
 1951: 405.330 + 0.00 = 405.330
 1952: 405.329 + 0.00 = 405.329
 1953: 405.329 + 0.00 = 405.329
 1954: 405.329 + 0.00 = 405.329
 1955: 405.329 + 0.00 = 405.329
 1956: 405.329 + 0.00 = 405.329
 1957: 405.329 + 0.00 = 405.329
 1958: 405.329 + 0.00 = 405.329
 1959: 405.329 + 0.00 = 405.329
 1960: 405.329 + 0.00 = 405.329
 1961: 405.329 + 0.00 = 405.329
 1962: 405.329 + 0.00 = 405.329
 1963: 405.329 + 0.00 = 405.329
 1964: 405.329 + 0.00 = 405.329
 1965: 405.329 + 0.00 = 405.329
 1966: 405.329 + 0.00 = 405.329
 1967: 405.329 + 0.00 = 405.329
 1968: 405.332 + 0.00 = 405.332
 1969: 405.332 + 0.00 = 405.332
 1970: 405.332 + 0.00 = 405.332
 1971: 405.332 + 0.00 = 405.332
 1972: 405.332 + 0.00 = 405.332
 1973: 405.332 + 0.00 = 405.332
 1974: 405.332 + 0.00 = 405.332
 1975: 405.332 + 0.00 = 405.332
 1976: 405.332 + 0.00 = 405.332
 1977: 405.332 + 0.00 = 405.332
 1978: 405.332 + 0.00 = 405.332
 1979: 405.332 + 0.00 = 405.332
 1980: 405.332 + 0.00 = 405.332
 1981: 405.332 + 0.00 = 405.332
 1982: 405.332 + 0.00 = 405.332
 1983: 405.332 + 0.00 = 405.332
 1984: 405.328 + 0.00 = 405.328
 1985: 405.328 + 0.00 = 405.328
 1986: 405.328 + 0.00 = 405.328
 1987: 405.328 + 0.00 = 405.328
 1988: 405.328 + 0.00 = 405.328
 1989: 405.328 + 0.00 = 405.328
 1990: 405.328 + 0.00 = 405.328
 1991: 405.328 + 0.00 = 405.328
 1992: 405.333 + 0.00 = 405.333
 1993: 405.333 + 0.00 = 405.333
 1994: 405.333 + 0.00 = 405.333
 1995: 405.334 + 0.00 = 405.334
 1996: 405.333 + 0.00 = 405.333
 1997: 405.334 + 0.00 = 405.334
 1998: 405.334 + 0.00 = 405.334
 1999: 405.334 + 0.00 = 405.334
 2000: 405.334 + 0.00 = 405.334
 2001: 405.334 + 0.00 = 405.334
 2002: 405.334 + 0.00 = 405.334
 2003: 405.334 + 0.00 = 405.334
 2004: 405.334 + 0.00 = 405.334
 2005: 405.334 + 0.00 = 405.334
 2006: 405.334 + 0.00 = 405.334
 2007: 405.334 + 0.00 = 405.334
 2008: 405.331 + 0.00 = 405.331
 2009: 405.331 + 0.00 = 405.331
 2010: 405.331 + 0.00 = 405.331
 2011: 405.331 + 0.00 = 405.331
 2012: 405.331 + 0.00 = 405.331
 2013: 405.331 + 0.00 = 405.331
 2014: 405.331 + 0.00 = 405.331
 2015: 405.331 + 0.00 = 405.331
 2016: 405.333 + 0.00 = 405.333
 2017: 405.333 + 0.00 = 405.333
 2018: 405.333 + 0.00 = 405.333
 2019: 405.333 + 0.00 = 405.333
 2020: 405.333 + 0.00 = 405.333
 2021: 405.333 + 0.00 = 405.333
 2022: 405.333 + 0.00 = 405.333
 2023: 405.333 + 0.00 = 405.333
 2024: 405.333 + 0.00 = 405.333
 2025: 405.333 + 0.00 = 405.333
 2026: 405.333 + 0.00 = 405.333
 2027: 405.333 + 0.00 = 405.333
 2028: 405.333 + 0.00 = 405.333
 2029: 405.333 + 0.00 = 405.333
 2030: 405.333 + 0.00 = 405.333
 2031: 405.333 + 0.00 = 405.333
 2032: 405.328 + 0.00 = 405.328
 2033: 405.328 + 0.00 = 405.328
 2034: 405.328 + 0.00 = 405.328
 2035: 405.328 + 0.00 = 405.328
 2036: 405.328 + 0.00 = 405.328
 2037: 405.328 + 0.00 = 405.328
 2038: 405.328 + 0.00 = 405.328
 2039: 405.328 + 0.00 = 405.328
 2040: 405.331 + 0.00 = 405.331
 2041: 405.331 + 0.00 = 405.331
 2042: 405.331 + 0.00 = 405.331
 2043: 405.331 + 0.00 = 405.331
 2044: 405.331 + 0.00 = 405.331
 2045: 405.331 + 0.00 = 405.331
 2046: 405.331 + 0.00 = 405.331
 2047: 405.331 + 0.00 = 405.331
 ----------------------------------------
HPM_Prof got a total of 388578 hits at 19375 program-counter locations.
