  Input file(s): C_Diamond-211.qmc.in-wfj-Twist0.xml 

=====================================================
                    QMCPACK 3.5.0 

       (c) Copyright 2003-  QMCPACK developers

                    Please cite:
 J. Kim et al. J. Phys. Cond. Mat. 30 195901 (2018)
      https://doi.org/10.1088/1361-648X/aab9c3

  Git branch: develop
  Last git commit: 5b6fb4435e32687cad8883c4124b047a1ff1b9e9
  Last git commit date: Thu Aug 2 10:18:21 2018 -0500
  Last git commit subject: Merge pull request #949 from jtkrogel/cleanup_csrmc
=====================================================
  Global options 

  MPI Nodes            = 512
  MPI Nodes per group  = 512
  MPI Group ID         = 0
  OMP_NUM_THREADS      = 32

  Precision used in this calculation, see definitions in the manual:
  Base precision      = double
  Full precision      = double

  Input XML = qmc_ref_long_vmc_dmc.in.xml 

  Project = qmc_ref_long_vmc_dmc 
  date    = 2018-08-15 22:25:29 UTC
  host    = Q02-I2-J01.vesta.itd

 Random Number
 -------------
  Offset for the random number seeds based on time: 89

  Range of prime numbers to use as seeds over processors and threads = 467-181787


 Lattice
 -------
  Simulation cell radius   = 1.947495 bohr
  Wigner-Seitz cell radius = 2.385185 bohr

 Unit Cell
 ---------
  Lattice (bohr):      6.7463223000      6.7463223000      0.0000000000
                       0.0000000000      3.3731611500      3.3731611500
                       3.3731611500      0.0000000000      3.3731611500

  Boundary Conditions:  p  p  p 

  Volume (bohr^3) = 153.5222266112

  Reciprocal vectors without 2*pi.
    g_1 =       0.0741144549      0.0741144549     -0.0741144549
    g_2 =      -0.1482289098      0.1482289098      0.1482289098
    g_3 =       0.1482289098     -0.1482289098      0.1482289098

  Metric tensor in real-space.
    h_1 = 91.0257291510 22.7564322877 22.7564322877 
    h_2 = 22.7564322877 22.7564322877 11.3782161439 
    h_3 = 22.7564322877 11.3782161439 22.7564322877 

  Metric tensor in g-space.
    h_1 = 0.6505592096 -0.4337061397 -0.4337061397 
    h_2 = -0.4337061397 2.6022368383 -0.8674122794 
    h_3 = -0.4337061397 -0.8674122794 2.6022368383 

 Particle Set 
 ------------
  Name: ion0
  Initializing the lattice by the global supercell
  All the species have the same mass 1.0000000000
  Long-range breakup parameters:
    rc*kc = 15.0000000000; rc = 1.9474954980; kc = 7.7022000901

  Creating Structure Factor for periodic systems 7.7022000901
  KContainer initialised with cutoff 7.7022000901
   # of K-shell  = 59
   # of K points = 1188

  Particle set size: 4

 Particle Set 
 ------------
  Name: e
  Initializing the lattice by the global supercell
  All the species have the same mass 1.0000000000
  Long-range breakup parameters:
    rc*kc = 15.0000000000; rc = 1.9474954980; kc = 7.7022000901

  Creating Structure Factor for periodic systems 7.7022000901
  KContainer initialised with cutoff 7.7022000901
   # of K-shell  = 59
   # of K points = 1188

  Particle set size: 16

 Wavefunction setup: 
 ------------------- 
  Name: psi0
  LCAO: SoaAtomicBasisSet<MultiQuintic,1>

  Distance table for similar particles (A-A):
    source/target: e
    Using structure-of-arrays (SoA) data layout
    Distance computations use general periodic cell in 3D with corner image checks.


  Distance table for dissimilar particles (A-B):
    source: ion0  target: e
    Using structure-of-arrays (SoA) data layout
    Distance computations use general periodic cell in 3D with corner image checks.

Reading BasisSet from HDF5 file:../C_Diamond-211.h5
<input node="atomicBasisSet" name="bfd-vtz" Morder="pyscf" angular="spherical" elementType="C" normalized="no" basisType="Numerical" addSign="0" />
  AO BasisSet for C
   Spherical Harmonics contain (-1)^m factor
   Angular momentum m expanded as -l, ... ,l, with the exception of L=1 (1,-1,0)
   Grid is created by the input paremters in h5
    Using log grid ri = 0.0000010000 rf = 100.0000000000 npts = 1001
   R(n,l,m,s) 0 0 0 0
   R(n,l,m,s) 1 0 0 0
   R(n,l,m,s) 2 0 0 0
   R(n,l,m,s) 3 1 0 0
   R(n,l,m,s) 4 1 0 0
   R(n,l,m,s) 5 1 0 0
   R(n,l,m,s) 6 2 0 0
   R(n,l,m,s) 7 2 0 0
   R(n,l,m,s) 8 3 0 0
Expanding Ylm as L=1 as (1,-1,0) and L>1 as -l,-l+1,...,l-1,l
   Adding 1 spherical orbitals
   Adding 1 spherical orbitals
   Adding 1 spherical orbitals
   Adding 3 spherical orbitals
   Adding 3 spherical orbitals
   Adding 3 spherical orbitals
   Adding 5 spherical orbitals
   Adding 5 spherical orbitals
   Adding 7 spherical orbitals
   Maximum Angular Momentum  = 3
   Number of Radial functors = 9
   Basis size                = 29

  Created SPOSet builder named 'LCAOBSet' of type molecularorbital
Reuse SPOSetBuilder "LCAOBSet" type MolecularOrbital
  Building SPOSet '' with '' basis set.
Reuse SPOSetBuilder "LCAOBSet" type MolecularOrbital
  Building SPOSet '' with '' basis set.
  Creating a determinant updet group=0 sposet=updet
  Reusing a SPO set updet
Using DiracDeterminantBase 

  Creating a determinant downdet group=1 sposet=downdet
  Reusing a SPO set downdet
Using DiracDeterminantBase 

  FermionWF = SlaterDet
  BsplineJastrowBuilder adds a functor with cusp = -0.2500000000
  Jastrow cutoff unspecified.  Setting to Wigner-Seitz radius = 2.3851851232.
 size = 10 parameters 
 cusp = -0.2500000000
 rcut = 2.3851851232
Parameter     Name      Value
uu_0 0.2888585324 1 1  ON 0
uu_1 0.2401341736 1 1  ON 1
uu_2 0.1959958501 1 1  ON 2
uu_3 0.1556631834 1 1  ON 3
uu_4 0.1200140984 1 1  ON 4
uu_5 0.0900633751 1 1  ON 5
uu_6 0.0639642484 1 1  ON 6
uu_7 0.0426074732 1 1  ON 7
uu_8 0.0243006646 1 1  ON 8
uu_9 0.0128084764 1 1  ON 9
  BsplineJastrowBuilder adds a functor with cusp = -0.5000000000
  Jastrow cutoff unspecified.  Setting to Wigner-Seitz radius = 2.3851851232.
 size = 10 parameters 
 cusp = -0.5000000000
 rcut = 2.3851851232
Parameter     Name      Value
ud_0 0.5106673866 1 1  ON 0
ud_1 0.4089632806 1 1  ON 1
ud_2 0.3228341465 1 1  ON 2
ud_3 0.2501976968 1 1  ON 3
ud_4 0.1888517241 1 1  ON 4
ud_5 0.1381845042 1 1  ON 5
ud_6 0.0961488107 1 1  ON 6
ud_7 0.0635298829 1 1  ON 7
ud_8 0.0363849240 1 1  ON 8
ud_9 0.0191841392 1 1  ON 9

  Using BsplineBuilder for one-body jastrow with B-spline functions
  Jastrow cutoff unspecified.  Setting to Wigner-Seitz radius = 2.3851851232.
 size = 10 parameters 
 cusp = 0.0000000000
 rcut = 2.3851851232
Parameter     Name      Value
eC_0 -0.2582194240 1 1  ON 0
eC_1 -0.2466686639 1 1  ON 1
eC_2 -0.2253728704 1 1  ON 2
eC_3 -0.1971115317 1 1  ON 3
eC_4 -0.1658203193 1 1  ON 4
eC_5 -0.1312072489 1 1  ON 5
eC_6 -0.0968957889 1 1  ON 6
eC_7 -0.0643370357 1 1  ON 7
eC_8 -0.0362044618 1 1  ON 8
eC_9 -0.0169466501 1 1  ON 9
  QMCHamiltonian::addOperator Kinetic to H, physical Hamiltonian 

  Creating CoulombHandler with the optimal breakup. 
  KContainer initialised with cutoff 35.2028130745
   # of K-shell  = 1194
   # of K points = 113300

  NUMBER OF OPT_BREAK KVECS = 75813162229
 finding kc:  7.7022000901 , -1.0000000000
  LRBreakp parameter Kc =7.7022000901
    Continuum approximation in k = [35.2028130745,3080.8800360496)

   LR Breakup chi^2 = 0.0000000000
   PBCAA self-interaction term -12.4660981857
   PBCAA total constant -13.7706845046
  Maximum K shell 58
  Number of k vectors 1188
  Fixed Coulomb potential for e
    e-e Madelung Const. =-0.2295661411
    Vtot     =0.0000000000
  QMCHamiltonian::addOperator ElecElec to H, physical Hamiltonian 
QMCHamiltonian::addOperatorType added type coulomb named ElecElec

  Distance table for similar particles (A-A):
    source/target: ion0
    Using structure-of-arrays (SoA) data layout
    Distance computations use general periodic cell in 3D with corner image checks.

  Clone CoulombHandler. 
   PBCAA self-interaction term -49.8643927426
   PBCAA total constant -51.1689790616
  Maximum K shell 58
  Number of k vectors 1188
  Fixed Coulomb potential for ion0
    e-e Madelung Const. =-0.2295661411
    Vtot     =-25.5513267567
  QMCHamiltonian::addOperator IonIon to H, physical Hamiltonian 
QMCHamiltonian::addOperatorType added type coulomb named IonIon

  ECPotential builder for pseudopotential 

  Adding pseudopotential for C
   Linear grid  ri=0.0000000000 rf=10.0000000000 npts = 10001
    ECPComponentBuilder::buildSemiLocalAndLocal 
    Assuming Hartree unit
   Number of angular momentum channels 2
   Maximum angular momentum channel 1
   Creating a Linear Grid Rmax=1.7000000000
  Using global grid with delta = 0.0010000000
   Making L=1 a local potential with a radial cutoff of 9.9990000000
    Non-local pseudopotential parameters
    Maximum angular mementum = 0
    Number of non-local channels = 1
       l(0)=0
    Cutoff radius = 1.7000000000
    Spherical grids and weights: 
             1.0000000000      0.0000000000      0.0000000000        0.0833333333
            -1.0000000000      0.0000000000      0.0000000000        0.0833333333
             0.4472135955      0.8944271910      0.0000000000        0.0833333333
            -0.4472135955      0.7236067977      0.5257311121        0.0833333333
             0.4472135955      0.2763932023      0.8506508084        0.0833333333
            -0.4472135955     -0.2763932023      0.8506508084        0.0833333333
             0.4472135955     -0.7236067977      0.5257311121        0.0833333333
            -0.4472135955     -0.8944271910      0.0000000000        0.0833333333
             0.4472135955     -0.7236067977     -0.5257311121        0.0833333333
            -0.4472135955     -0.2763932023     -0.8506508084        0.0833333333
             0.4472135955      0.2763932023     -0.8506508084        0.0833333333
            -0.4472135955      0.7236067977     -0.5257311121        0.0833333333
    Maximum cutoff radius 1.7000000000
  Clone CoulombHandler. 
   Constant of PBCAB 2.6091726380
  Rcut                1.9474954980
  Maximum K shell     58
  Number of k vectors 1188
    CoulombPBCAB::add 
 Setting a linear grid=[0,1.9474954980) number of grid =1948
    Creating the short-range pseudopotential for species 0
  QMCHamiltonian::addOperator LocalECP to H, physical Hamiltonian 

  Using NonLocalECP potential 
    Maximum grid on a sphere for NonLocalECPotential: 12
  QMCHamiltonian::addOperator NonLocalECP to H, physical Hamiltonian 
QMCHamiltonian::addOperatorType added type pseudo named PseudoPot

  QMCHamiltonian::add2WalkerProperty added
    5 to P::PropertyList 
    0 to P::Collectables 
    starting Index of the observables in P::PropertyList = 9
ParticleSetPool::randomize 
<init source="ion0" target="e">
</init>
Mismatched random number generators.
  Number of procs in streams : old=3 new= 512
  Number of threads in streams : old=0 new= 32
  State size per stream : old=29 new= 624
  Using the random streams generated at the initialization.
  Initialization Execution time = 3.1228 secs
=========================================================
 Summary of QMC systems 
=========================================================
ParticleSetPool has: 

  ParticleSet e : 0 8 16 

    16

    u  6.6451546675e+00  6.1874365631e+00  1.0211747061e+00
    u  7.2064548904e+00  9.0856565722e+00  3.0818435858e+00
    u  4.4857496583e+00  2.1903921116e+00  4.1753815155e+00
    u  9.0021781068e-01  9.7686269210e-01  1.1933057359e+00
    u  6.0583853167e+00  4.3143956420e+00  3.4519410667e+00
    u  6.3238124760e+00  6.8246610689e+00  5.6597062578e+00
    u  5.7013644426e+00  8.0112346816e+00  4.1788886384e+00
    u  4.9331267185e+00  5.4791457293e+00  6.0331936062e-01
    d  2.7457569115e+00  9.8079937402e-01  3.4720674023e+00
    d  3.4301857442e+00  2.6090124182e+00  5.8641597024e+00
    (... and 6 more particle positions ...)

  ParticleSet ion0 : 0 4 

    4

    C  0.0000000000e+00  0.0000000000e+00  0.0000000000e+00
    C  1.6865805750e+00  1.6865805750e+00  1.6865805750e+00
    C  3.3731611500e+00  3.3731611500e+00  8.8536235098e-34
    C  5.0597417250e+00  5.0597417250e+00  1.6865805750e+00

  Hamiltonian h0
  Kinetic         Kinetic energy
  ElecElec        CoulombPBCAA potential: e_e
  IonIon          CoulombPBCAA potential: ion0_ion0
  LocalECP        CoulombPBCAB potential source: ion0
  NonLocalECP     NonLocalECPotential: ion0
Creating DMCMP for the qmc driver

=========================================================
  Start DMCOMP
  File Root C_Diamond-211.s002 append = no 
=========================================================
  Adding 32 walkers to 0 existing sets
  Total number of walkers: 1.6384000000e+04
  Total weight: 1.6384000000e+04
  Resetting Properties of the walkers 1 x 14
    Restarting, cummulative properties:
      energy     = -2.1708029853e+01
      variance   = 0.0000000000e+00
      r2accepted = 1.0000000000e-10
      r2proposed = 1.0000000000e-10
  CloneManager::makeClones makes 32 clones for W/Psi/H.
  Cloning methods for both Psi and H are used
===== Memory Usage before cloning =====
Allocated heap: 528.00 MB, avail. heap: 15727.98 MB
Allocated stack: 0.02 MB, avail. stack: 15727.98 MB
==================================================
===== Memory Usage after cloning =====
Allocated heap: 528.00 MB, avail. heap: 15727.98 MB
Allocated stack: 0.02 MB, avail. stack: 15727.98 MB
==================================================
  Total number of walkers: 1.6384000000e+04
  Total weight: 1.6384000000e+04
  Creating WalkerController: target  number of walkers = 12800
  Using WalkerControlMPI for dynamic population control.
  WalkerControlBase parameters 
    maxCopy = 2
    Max Walkers per MPI rank 51
    Min Walkers per MPI rank 6
    Using non-blocking send/recv
  QMC counter      = 1
  time step        = 5.0000000000e-03
  effective time step = 5.0000000000e-01
  trial energy     = -2.1708029853e+01
  reference energy = -2.1708029853e+01
  Feedback = 1.0000000000e+00
  reference variance = 1.1686076243e+00
  target walkers = 12800
  branching cutoff scheme classic
  branch cutoff = 1.0000000000e+00 1.0000000000e+00
  Max and minimum walkers per node= 16384 16384
  QMC Status (BranchMode) = 0001001101
  Initial partition of walkers on a node: 0 1 2 3 4 5 6 7 8 9 10 11 12 13 14 15 16 17 18 19 20 21 22 23 24 25 26 27 28 29 30 31 32 
  Updates by particle-by-particle moves
  DMC moves are rejected when a node crossing is detected
  Using Locality Approximation
===== Memory Usage after the buffer registration =====
Allocated heap: 528.00 MB, avail. heap: 15727.98 MB
Allocated stack: 0.02 MB, avail. stack: 15727.98 MB
==================================================
SimpleFixedNodeBranch::checkParameters 
  Average Energy of a population  = -14.0784
  Energy Variance = 33998.7

  Fluctuating population
  Persistent walkers are killed after 1 MC sweeps
  BranchInterval = 1
  Steps per block = 50
  Number of blocks = 103

  DMC Engine Initialization = 7.4218243562e-01 secs 

 Warmup is completed after 100

  TauEff     = 4.9777910535e-03
 TauEff/Tau = 9.9555821070e-01
  Etrial     = -2.1610461108e+01
 Running average of energy = -2.2091091605e+01
                  Variance = 3.3811461573e+02
branch cutoff = 5.0000000000e+02 7.5000000000e+02
====================================================
  SimpleFixedNodeBranch::finalize after a DMC block
    QMC counter                   = 1
    time step                     = 0.005
    effective time step           = 0.00498429
    trial energy                  = -21.8421
    reference energy              = -21.8456
    reference variance            = 338.115
    target walkers                = 12800
    branch cutoff                 = 500 750
    Max and minimum walkers per node= 16384 16384
    Feedback                      = 1
    QMC Status (BranchMode)       = 0001001111
====================================================
  QMC Execution time = 4.6784e+03 secs 
  Total Execution time = 4.6784e+03 secs

=========================================================
  A new xml input file : qmc_ref_long_vmc_dmc.s001.cont.xml
