  Input file(s): qmc_ref_phmsd.in.xml 

=====================================================
                    QMCPACK 3.6.0

       (c) Copyright 2003-  QMCPACK developers

                    Please cite:
 J. Kim et al. J. Phys. Cond. Mat. 30 195901 (2018)
      https://doi.org/10.1088/1361-648X/aab9c3

  Git branch: develop
  Last git commit: 4862d84198c38cac01cd448a768b0e1dce2875fb
  Last git commit date: Fri Jan 4 13:29:36 2019 -0500
  Last git commit subject: Merge pull request #1298 from mmorale3/remove_old_shm_classes
=====================================================
  Global options 

  MPI Nodes             = 16
  MPI Nodes per group   = 16
  MPI Group ID          = 0
  OMP 1st level threads = 2
  OMP nested threading disabled or only 1 thread on the 2nd level

  Precision used in this calculation, see definitions in the manual:
  Base precision      = double
  Full precision      = double

  Input XML = qmc_ref_phmsd.in.xml

/*************************************************
 ********  This is an AFQMC calculation   ********
 *************************************************
 Random Number
 -------------
  Offset for the random number seeds based on time: 933

  Range of prime numbers to use as seeds over processors and threads = 7333-7607



****************************************************
****************************************************
****************************************************
          Beginning Driver initialization.
****************************************************
****************************************************
****************************************************

 Using 1 cores per node in all TaskGroups. 

****************************************************
           Initializating Shared Walker Set 
****************************************************
 Using a collinear (UHF/ROHF) walker. 
 Using asynchronous non-blocking swap load balancing algorithm. 
 Using population control algorithm based on paired walker branching ( a la QWalk). 


****************************************************
               Initializating Hamiltonian 
****************************************************

 Initializing Hamiltonian from file: choldump_phmsd.h5
 -- Time to count elements in hdf5 read: 0.0298851
 -- Time to read into ucsr matrix: 0.0192251
 -- Time to read move ucsr into csr matrix: 0.00159979
 Memory used by factorized 2-el integral table (on head node): 0.927311 MB. 
 -- Time to initialize Hamiltonian from h5 file: 0.400535

****************************************************
               Initializating Wavefunction 
****************************************************

 Wavefunction type: PHMSD

Partition of cholesky vector over nodes in TG: 229
Number of terms in Cholesky Matrix per node in TG: 48077
 Time for calculateHSPotentials: 0.0101709
 Time for halfRotateCholeskyMatrixForBias: 0.126681
 Calculating half-rotated Hamiltonian using Dense x Dense matrix multiplication. 
 Approximate memory usage for half-rotated Hamiltonian construction: 
   max. number of orbital in a node: 26
   Qk/Rl matrices size (assuming dense) each = maxnorb * nup * ncholvecs complex numbers = 0.635956 MB 
   Maximum size of communication buffer: 1024 MB
   Temporary integral matrix Ta: 0.505432 MB 
  Number of terms in Vijkl: 
    Local: (min/max)388 0.00740051 MB  -  645 0.0123024 MB 
    Node (min/max): 8128 0.155029 MB   -   8128 0.155029 MB 
    Global: 8128 0.155029 MB

 Time for halfRotateHijkl: 0.0304229

****************************************************
               Initializating Propagator 
****************************************************

 Using mean-field substraction in propagator: prop0
 Largest component of Mean-field substraction potential: 1.20205


 --------------- Parsing Propagator input ------------------ 

 Using hybrid method to calculate the weights during the propagation.

 Energy of starting determinant - E1, EJ, EXX: (-10.8097667596,0) (1.46758186973,0) (-0.977572668585,0)
  BasicEstimator: Number of products in weight history: 0

****************************************************
****************************************************
****************************************************
          Finished Driver initialization.
****************************************************
****************************************************
****************************************************

Initial weight and number of walkers: 320 320
Initial Eshift: 0
----------------------------------------------------------------
 Timer: 
 Average time in Generic: 0.0304229259491
 Average time in Generic1: 0.00159978866577
----------------------------------------------------------------
Stack timer profile
Timer             Inclusive_time  Exclusive_time  Calls       Time_per_call
Total             4230.0921     1.1368              1    4230.092125467
  Block           4228.9554  1475.3895          10000       0.422895537
    Energy          58.8000    58.8000          10000       0.005880005
    G_for_vbias    436.6629   436.6629        1000000       0.000436663
    Propagate      682.8200   682.8200        1000000       0.000682820
    PseudoEnergy   131.0006   131.0006        1000000       0.000131001
    vHS            910.1284   910.1284        1000000       0.000910128
    vbias          534.1540   534.1540        1000000       0.000534154
