
     Program PWSCF v.6.3MaX starts on 22Nov2019 at  3:22: 9 

     This program is part of the open-source Quantum ESPRESSO suite
     for quantum simulation of materials; please cite
         "P. Giannozzi et al., J. Phys.:Condens. Matter 21 395502 (2009);
         "P. Giannozzi et al., J. Phys.:Condens. Matter 29 465901 (2017);
          URL http://www.quantum-espresso.org", 
     in publications or presentations arising from this work. More details at
     http://www.quantum-espresso.org/quote

     Parallel version (MPI), running on     6 processors

     MPI processes distributed on     1 nodes
     R & G space division:  proc/nbgrp/npool/nimage =       6
     Reading input from nscf_10.in

     Current dimensions of program PWSCF are:
     Max number of different atomic species (ntypx) = 10
     Max number of k-points (npk) =  40000
     Max angular momentum in pseudopotentials (lmaxx) =  3
     Message from routine volume:
     axis vectors are left-handed

     Atomic positions and unit cell read from directory:
     ./out/Gr.save/
     Message from routine volume:
     axis vectors are left-handed
 
               file C.BFD.upf: wavefunction(s)  0s 0p renormalized

     Subspace diagonalization in iterative solution of the eigenvalue problem:
     a serial algorithm will be used

 
     Parallelization info
     --------------------
     sticks:   dense  smooth     PW     G-vecs:    dense   smooth      PW
     Min          10      10      2                  252      252      29
     Max          11      11      4                  260      260      35
     Sum          61      61     19                 1527     1527     193
 


     bravais-lattice index     =            0
     lattice parameter (alat)  =       4.6510  a.u.
     unit-cell volume          =     354.0257 (a.u.)^3
     number of atoms/cell      =            2
     number of atomic types    =            1
     number of electrons       =         8.00
     number of Kohn-Sham states=            8
     kinetic-energy cutoff     =      10.0000  Ry
     charge density cutoff     =      40.0000  Ry
     Exchange-correlation      =   SLA   PW  PBE  PBE ( 1  4  3  4 0 0)

     celldm(1)=   8.055626  celldm(2)=   0.577387  celldm(3)=   2.345846
     celldm(4)=   0.000000  celldm(5)=   0.000000  celldm(6)=   0.000000

     crystal axes: (cart. coord. in units of alat)
               a(1) = (   0.866011   0.500024   0.000000 )  
               a(2) = (   0.866011  -0.500024   0.000000 )  
               a(3) = (   0.000000   0.000000   4.063059 )  

     reciprocal axes: (cart. coord. in units 2 pi/alat)
               b(1) = (  0.577360  0.999952  0.000000 )  
               b(2) = (  0.577360 -0.999952  0.000000 )  
               b(3) = (  0.000000  0.000000  0.246120 )  


     PseudoPot. # 1 for C  read from file:
     ./C.BFD.upf
     MD5 check sum: 02fd4bd23586e9bbe97c60bf7ee9bdf0
     Pseudo is Norm-conserving, Zval =  4.0
     Generated by new atomic code, or converted to UPF format
     Using radial grid of 2000 points,  1 beta functions with: 
                l(1) =   0

     atomic species   valence    mass     pseudopotential
        C              4.00    12.01078     C ( 1.00)

     No symmetry found



   Cartesian axes

     site n.     atom                  positions (alat units)
         1           C   tau(   1) = (   0.2775076   0.0743627   2.0315297  )
         2           C   tau(   2) = (   0.5659801   0.5740440   2.0315297  )

     number of k points=     1  Marzari-Vanderbilt smearing, width (Ry)=  0.0010
                       cart. coord. in units 2pi/alat
        k(    1) = (   0.0000000   0.0000000   0.0000000), wk =   2.0000000

     Dense  grid:     1527 G-vectors     FFT dimensions: (   9,   9,  40)

     Estimated max dynamical RAM per process >       0.16 MB

     Estimated total dynamical RAM >       0.96 MB

     The potential is recalculated from file :
     ./out/Gr.save/charge-density.dat

     Starting wfcs are    8 randomized atomic wfcs

     Band Structure Calculation
     Davidson diagonalization with overlap

     ethr =  1.25E-13,  avg # of iterations = 41.0

     total cpu time spent up to now is        0.2 secs

     End of band structure calculation

          k = 0.0000 0.0000 0.0000 (   193 PWs)   bands (ev):

   -21.8382  -7.5451  -1.1558  -1.1282   2.6716   4.6641   5.3172   9.3595

     the Fermi energy is     1.5737 ev

     Writing output data file Gr.save/
 
     init_run     :      0.04s CPU      0.06s WALL (       1 calls)
     electrons    :      0.02s CPU      0.03s WALL (       1 calls)

     Called by init_run:
     wfcinit      :      0.00s CPU      0.00s WALL (       1 calls)
     potinit      :      0.00s CPU      0.00s WALL (       1 calls)
     hinit0       :      0.04s CPU      0.05s WALL (       1 calls)

     Called by electrons:
     c_bands      :      0.02s CPU      0.03s WALL (       1 calls)
     v_of_rho     :      0.00s CPU      0.00s WALL (       1 calls)

     Called by c_bands:
     init_us_2    :      0.00s CPU      0.00s WALL (       1 calls)
     cegterg      :      0.01s CPU      0.02s WALL (       3 calls)

     Called by sum_band:

     Called by *egterg:
     h_psi        :      0.01s CPU      0.01s WALL (      45 calls)
     g_psi        :      0.00s CPU      0.00s WALL (      41 calls)
     cdiaghg      :      0.01s CPU      0.02s WALL (      42 calls)

     Called by h_psi:
     h_psi:pot    :      0.01s CPU      0.01s WALL (      45 calls)
     h_psi:calbec :      0.00s CPU      0.00s WALL (      45 calls)
     vloc_psi     :      0.00s CPU      0.01s WALL (      45 calls)
     add_vuspsi   :      0.00s CPU      0.00s WALL (      45 calls)

     General routines
     calbec       :      0.00s CPU      0.00s WALL (      45 calls)
     fft          :      0.03s CPU      0.05s WALL (      11 calls)
     fftw         :      0.00s CPU      0.01s WALL (     338 calls)
     davcio       :      0.00s CPU      0.00s WALL (       2 calls)
 
     Parallel routines
     fft_scatt_xy :      0.00s CPU      0.00s WALL (     349 calls)
     fft_scatt_yz :      0.03s CPU      0.04s WALL (     349 calls)
 
     PWSCF        :     0.12s CPU         0.18s WALL

 
   This run was terminated on:   3:22: 9  22Nov2019            

=------------------------------------------------------------------------------=
   JOB DONE.
=------------------------------------------------------------------------------=
