  Input file(s): optm.xml 

=====================================================
                    QMCPACK 1.0.0 

  (c) Copyright 2003-  QMCPACK developers            

  Subversion branch 6925
  Last modified     2016-05-18 12:43:30 -0400 (Wed, 18 May 2016)
=====================================================
  Global options 
  async_swap=0 : using blocking send/recv for walker swaps 

  MPI Nodes            = 320
  MPI Nodes per group  = 320
  MPI Group ID         = 0
  OMP_NUM_THREADS      = 1

  Input XML = optm.xml

  Project = jopt-h2o
  date    = 2016-05-18 23:01:18 EDT
  host    = nid17235
  user    = auser

  DO NOT READ DENSITY
  Offset for the random number seeds based on time 126
  Random number offset = 126  seeds = 719-3167
  Creating e particleset
  All the species have the same mass 1
Particles are grouped. Safe to use groups 
e
  Creating ion0 particleset
  All the species have the same mass 1
Particles are grouped. Safe to use groups 
ion0
 Adding WavefunctionFactory for psi0
Using MolecularBasisBuilder<NGOBuilder>
<input node="basisset"  name="LCAOBSet"/>
  Distance table for AA: source/target = e
    PBC=open Orthorhombic=NA
 using Cartesian coordinates with 
  ... ParticleSet::addTable Create Table #0 e_e
  Distance table for AB: source = ion0 target = e
    PBC=open Orthorhombic=NA
 using Cartesian coordinates 
  ... ParticleSet::addTable Create Table #1 ion0_e
<input node="atomicBasisSet"  name="Gaussian-G2"  angular="cartesian"  type="Gaussian"  elementType="O"  normalized="no"/>
  AO BasisSet for O
   Angular momentum expanded in cartesian functions x^lx y^ly z^lz according to Gamess
Using log grid with default values: ri = 1e-06 rf = 100 npts = 1001
   R(n,l,m,s) 0 0 0 0
Expanding Ylm (angular function) according to Gamess using cartesian gaussians
    Gaussian exponent = 0.125346
              contraction=0.055741 nomralized contraction = 0.0296669
    Gaussian exponent = 0.268022
              contraction=0.304848 nomralized contraction = 0.286897
    Gaussian exponent = 0.573098
              contraction=0.453752 nomralized contraction = 0.755101
    Gaussian exponent = 1.22543
              contraction=0.295926 nomralized contraction = 0.870791
    Gaussian exponent = 2.62028
              contraction=0.019567 nomralized contraction = 0.101812
    Gaussian exponent = 5.60282
              contraction=-0.128627 nomralized contraction = -1.18345
    Gaussian exponent = 11.9802
              contraction=0.012024 nomralized contraction = 0.19562
    Gaussian exponent = 25.6168
              contraction=0.000407 nomralized contraction = 0.0117085
    Gaussian exponent = 54.7752
              contraction=-7.59999e-05 nomralized contraction = -0.00386604
Adding 1 cartesian gaussian orbitals for l= 0
   R(n,l,m,s) 1 0 0 0
Expanding Ylm (angular function) according to Gamess using cartesian gaussians
    Gaussian exponent = 1.68663
              contraction=1 nomralized contraction = 3.73922
	Setting GridManager of 1 radial orbital to false
Adding 1 cartesian gaussian orbitals for l= 0
   R(n,l,m,s) 2 0 0 0
Expanding Ylm (angular function) according to Gamess using cartesian gaussians
    Gaussian exponent = 0.237997
              contraction=1 nomralized contraction = 0.860882
	Setting GridManager of 2 radial orbital to false
Adding 1 cartesian gaussian orbitals for l= 0
   R(n,l,m,s) 3 1 0 0
Expanding Ylm (angular function) according to Gamess using cartesian gaussians
    Gaussian exponent = 0.083598
              contraction=0.044958 nomralized contraction = 0.00589571
    Gaussian exponent = 0.167017
              contraction=0.150175 nomralized contraction = 0.046777
    Gaussian exponent = 0.333673
              contraction=0.255999 nomralized contraction = 0.189397
    Gaussian exponent = 0.666627
              contraction=0.281879 nomralized contraction = 0.495337
    Gaussian exponent = 1.33182
              contraction=0.242835 nomralized contraction = 1.01356
    Gaussian exponent = 2.66076
              contraction=0.161134 nomralized contraction = 1.59746
    Gaussian exponent = 5.31578
              contraction=0.082308 nomralized contraction = 1.93814
    Gaussian exponent = 10.6201
              contraction=0.039899 nomralized contraction = 2.23155
    Gaussian exponent = 21.2173
              contraction=0.004679 nomralized contraction = 0.621585
	Setting GridManager of 3 radial orbital to false
Adding 3 cartesian gaussian orbitals for l= 1
   R(n,l,m,s) 4 1 0 0
Expanding Ylm (angular function) according to Gamess using cartesian gaussians
    Gaussian exponent = 0.184696
              contraction=1 nomralized contraction = 0.353229
	Setting GridManager of 4 radial orbital to false
Adding 3 cartesian gaussian orbitals for l= 1
   R(n,l,m,s) 5 1 0 0
Expanding Ylm (angular function) according to Gamess using cartesian gaussians
    Gaussian exponent = 0.600621
              contraction=1 nomralized contraction = 1.54254
	Setting GridManager of 5 radial orbital to false
Adding 3 cartesian gaussian orbitals for l= 1
   R(n,l,m,s) 6 2 0 0
Expanding Ylm (angular function) according to Gamess using cartesian gaussians
    Gaussian exponent = 0.66934
              contraction=1 nomralized contraction = 1.29244
	Setting GridManager of 6 radial orbital to false
Adding 6 cartesian gaussian orbitals for l= 2
   R(n,l,m,s) 7 2 0 0
Expanding Ylm (angular function) according to Gamess using cartesian gaussians
    Gaussian exponent = 2.40428
              contraction=1 nomralized contraction = 12.113
	Setting GridManager of 7 radial orbital to false
Adding 6 cartesian gaussian orbitals for l= 2
   R(n,l,m,s) 8 3 0 0
Expanding Ylm (angular function) according to Gamess using cartesian gaussians
    Gaussian exponent = 1.4231
              contraction=1 nomralized contraction = 4.36308
	Setting GridManager of 8 radial orbital to false
Adding 10 cartesian gaussian orbitals for l= 3
   Maximu Angular Momentum   = 3
   Number of Radial functors = 9
   Basis size                = 34

<input node="atomicBasisSet"  name="Gaussian-G2"  angular="cartesian"  type="Gaussian"  elementType="H"  normalized="no"/>
  AO BasisSet for H
   Angular momentum expanded in cartesian functions x^lx y^ly z^lz according to Gamess
Using log grid with default values: ri = 1e-06 rf = 100 npts = 1001
   R(n,l,m,s) 0 0 0 0
Expanding Ylm (angular function) according to Gamess using cartesian gaussians
    Gaussian exponent = 8.70089
              contraction=0.0627182 nomralized contraction = 0.802752
    Gaussian exponent = 1.95552
              contraction=0.261959 nomralized contraction = 1.09445
    Gaussian exponent = 0.559044
              contraction=0.75701 nomralized contraction = 1.23652
Adding 1 cartesian gaussian orbitals for l= 0
   R(n,l,m,s) 1 0 0 0
Expanding Ylm (angular function) according to Gamess using cartesian gaussians
    Gaussian exponent = 0.164925
              contraction=1 nomralized contraction = 0.653854
	Setting GridManager of 1 radial orbital to false
Adding 1 cartesian gaussian orbitals for l= 0
   R(n,l,m,s) 2 0 0 0
Expanding Ylm (angular function) according to Gamess using cartesian gaussians
    Gaussian exponent = 0.0320625
              contraction=1 nomralized contraction = 0.191431
	Setting GridManager of 2 radial orbital to false
Adding 1 cartesian gaussian orbitals for l= 0
   R(n,l,m,s) 3 1 0 0
Expanding Ylm (angular function) according to Gamess using cartesian gaussians
    Gaussian exponent = 0.790074
              contraction=1 nomralized contraction = 2.17305
	Setting GridManager of 3 radial orbital to false
Adding 3 cartesian gaussian orbitals for l= 1
   R(n,l,m,s) 4 1 0 0
Expanding Ylm (angular function) according to Gamess using cartesian gaussians
    Gaussian exponent = 0.152351
              contraction=1 nomralized contraction = 0.277679
	Setting GridManager of 4 radial orbital to false
Adding 3 cartesian gaussian orbitals for l= 1
   R(n,l,m,s) 5 2 0 0
Expanding Ylm (angular function) according to Gamess using cartesian gaussians
    Gaussian exponent = 0.883818
              contraction=1 nomralized contraction = 2.10215
	Setting GridManager of 5 radial orbital to false
Adding 6 cartesian gaussian orbitals for l= 2
   Maximu Angular Momentum   = 2
   Number of Radial functors = 6
   Basis size                = 15

Built BasisSetBuilder "LCAOBSet" of type molecularorbital
Creating SPOSet in SlaterDetBuilder::put(xmlNodePtr cur).
spo_name = spo-up
 Building SPOset spo-up with LCAOBSet basis set.
Creating LCOrbitalSet with the input coefficients
SPO coefficients are applied by a single dgemm (BLAS3)
Creating SPOSet in SlaterDetBuilder::put(xmlNodePtr cur).
spo_name = spo-dn
 Building SPOset spo-dn with LCAOBSet basis set.
Creating LCOrbitalSet with the input coefficients
SPO coefficients are applied by a single dgemm (BLAS3)
Using Bryan's algorithm for MultiSlaterDeterminant expansion. 
Creating base determinant (up) for MSD expansion. 
Creating base determinant (down) for MSD expansion. 
Found determinant list. 
Reading CSFs.
Found 98 terms in the MSD expansion.
Norm of ci vector (sum of ci^2): 0.999203
Norm of qchem ci vector (sum of qchem_ci^2): 0.999203
Found 23 unique up determinants.
Found 23 unique down determinants.
Number of terms in pairs array: 14
Number of terms in pairs array: 14
CI coefficients are optimizable. 
  FermionWF=MultiSlaterDeterminantFast
  BsplineJastrowBuilder adds a functor with cusp = -0.25
 size = 10 parameters 
 cusp = -0.25
 rcut = 10
Parameter     Name      Value
uu_0 0 1 1  ON 0
uu_1 0 1 1  ON 1
uu_2 0 1 1  ON 2
uu_3 0 1 1  ON 3
uu_4 0 1 1  ON 4
uu_5 0 1 1  ON 5
uu_6 0 1 1  ON 6
uu_7 0 1 1  ON 7
uu_8 0 1 1  ON 8
uu_9 0 1 1  ON 9
  BsplineJastrowBuilder adds a functor with cusp = -0.5
 size = 10 parameters 
 cusp = -0.5
 rcut = 10
Parameter     Name      Value
ud_0 0 1 1  ON 0
ud_1 0 1 1  ON 1
ud_2 0 1 1  ON 2
ud_3 0 1 1  ON 3
ud_4 0 1 1  ON 4
ud_5 0 1 1  ON 5
ud_6 0 1 1  ON 6
ud_7 0 1 1  ON 7
ud_8 0 1 1  ON 8
ud_9 0 1 1  ON 9

  Using BsplineBuilder for one-body jastrow with B-spline functions
  ... ParticleSet::addTable Reuse Table #1 ion0_e
  ... ParticleSet::addTable Reuse Table #1 ion0_e
 size = 10 parameters 
 cusp = 0
 rcut = 10
Parameter     Name      Value
eO_0 0 1 1  ON 0
eO_1 0 1 1  ON 1
eO_2 0 1 1  ON 2
eO_3 0 1 1  ON 3
eO_4 0 1 1  ON 4
eO_5 0 1 1  ON 5
eO_6 0 1 1  ON 6
eO_7 0 1 1  ON 7
eO_8 0 1 1  ON 8
eO_9 0 1 1  ON 9
 size = 10 parameters 
 cusp = 0
 rcut = 10
Parameter     Name      Value
eH_0 0 1 1  ON 0
eH_1 0 1 1  ON 1
eH_2 0 1 1  ON 2
eH_3 0 1 1  ON 3
eH_4 0 1 1  ON 4
eH_5 0 1 1  ON 5
eH_6 0 1 1  ON 6
eH_7 0 1 1  ON 7
eH_8 0 1 1  ON 8
eH_9 0 1 1  ON 9
  ... ParticleSet::addTable Reuse Table #1 ion0_e
Expected 26 parameters, but found 0 in PolynomialFunctor3D.
Parameter     Name      Value
uuO_0 0 1 1  ON 0
uuO_1 0 1 1  ON 1
uuO_2 0 1 1  ON 2
uuO_3 0 1 1  ON 3
uuO_4 0 1 1  ON 4
uuO_5 0 1 1  ON 5
uuO_6 0 1 1  ON 6
uuO_7 0 1 1  ON 7
uuO_8 0 1 1  ON 8
uuO_9 0 1 1  ON 9
uuO_10 0 1 1  ON 10
uuO_11 0 1 1  ON 11
uuO_12 0 1 1  ON 12
uuO_13 0 1 1  ON 13
uuO_14 0 1 1  ON 14
uuO_15 0 1 1  ON 15
uuO_16 0 1 1  ON 16
uuO_17 0 1 1  ON 17
uuO_18 0 1 1  ON 18
uuO_19 0 1 1  ON 19
uuO_20 0 1 1  ON 20
uuO_21 0 1 1  ON 21
uuO_22 0 1 1  ON 22
uuO_23 0 1 1  ON 23
uuO_24 0 1 1  ON 24
uuO_25 0 1 1  ON 25
Expected 26 parameters, but found 0 in PolynomialFunctor3D.
Parameter     Name      Value
udO_0 0 1 1  ON 0
udO_1 0 1 1  ON 1
udO_2 0 1 1  ON 2
udO_3 0 1 1  ON 3
udO_4 0 1 1  ON 4
udO_5 0 1 1  ON 5
udO_6 0 1 1  ON 6
udO_7 0 1 1  ON 7
udO_8 0 1 1  ON 8
udO_9 0 1 1  ON 9
udO_10 0 1 1  ON 10
udO_11 0 1 1  ON 11
udO_12 0 1 1  ON 12
udO_13 0 1 1  ON 13
udO_14 0 1 1  ON 14
udO_15 0 1 1  ON 15
udO_16 0 1 1  ON 16
udO_17 0 1 1  ON 17
udO_18 0 1 1  ON 18
udO_19 0 1 1  ON 19
udO_20 0 1 1  ON 20
udO_21 0 1 1  ON 21
udO_22 0 1 1  ON 22
udO_23 0 1 1  ON 23
udO_24 0 1 1  ON 24
udO_25 0 1 1  ON 25
Expected 26 parameters, but found 0 in PolynomialFunctor3D.
Parameter     Name      Value
uuH_0 0 1 1  ON 0
uuH_1 0 1 1  ON 1
uuH_2 0 1 1  ON 2
uuH_3 0 1 1  ON 3
uuH_4 0 1 1  ON 4
uuH_5 0 1 1  ON 5
uuH_6 0 1 1  ON 6
uuH_7 0 1 1  ON 7
uuH_8 0 1 1  ON 8
uuH_9 0 1 1  ON 9
uuH_10 0 1 1  ON 10
uuH_11 0 1 1  ON 11
uuH_12 0 1 1  ON 12
uuH_13 0 1 1  ON 13
uuH_14 0 1 1  ON 14
uuH_15 0 1 1  ON 15
uuH_16 0 1 1  ON 16
uuH_17 0 1 1  ON 17
uuH_18 0 1 1  ON 18
uuH_19 0 1 1  ON 19
uuH_20 0 1 1  ON 20
uuH_21 0 1 1  ON 21
uuH_22 0 1 1  ON 22
uuH_23 0 1 1  ON 23
uuH_24 0 1 1  ON 24
uuH_25 0 1 1  ON 25
Expected 26 parameters, but found 0 in PolynomialFunctor3D.
Parameter     Name      Value
udH_0 0 1 1  ON 0
udH_1 0 1 1  ON 1
udH_2 0 1 1  ON 2
udH_3 0 1 1  ON 3
udH_4 0 1 1  ON 4
udH_5 0 1 1  ON 5
udH_6 0 1 1  ON 6
udH_7 0 1 1  ON 7
udH_8 0 1 1  ON 8
udH_9 0 1 1  ON 9
udH_10 0 1 1  ON 10
udH_11 0 1 1  ON 11
udH_12 0 1 1  ON 12
udH_13 0 1 1  ON 13
udH_14 0 1 1  ON 14
udH_15 0 1 1  ON 15
udH_16 0 1 1  ON 16
udH_17 0 1 1  ON 17
udH_18 0 1 1  ON 18
udH_19 0 1 1  ON 19
udH_20 0 1 1  ON 20
udH_21 0 1 1  ON 21
udH_22 0 1 1  ON 22
udH_23 0 1 1  ON 23
udH_24 0 1 1  ON 24
udH_25 0 1 1  ON 25
  QMCHamiltonian::addOperator Kinetic to H, physical Hamiltonian 
  ... ParticleSet::addTable Reuse Table #0 e_e
  QMCHamiltonian::addOperator ElecElec to H, physical Hamiltonian 
QMCHamiltonian::addOperatorType added type coulomb named ElecElec

  ECPotential builder for pseudopotential 

  Adding pseudopotential for O
   Linear grid  ri=0 rf=10 npts = 10001
    ECPComponentBuilder::buildSemiLocalAndLocal 
    Assuming Hartree unit
   Number of angular momentum channels 2
   Maximum angular momentum channel 1
   Creating a Linear Grid Rmax=1.30534
  Using global grid with delta = 0.001
   Making L=1 a local potential with a radial cutoff of 9.998
  NonLocalECPComponent::resize_warrays 
    Non-local pseudopotential parameters
    Maximum angular mementum = 0
    Number of non-local channels = 1
       l(0)=0
    Cutoff radius = 1.306
    Spherical grids and weights: 
                        1                 0                 0       0.08333333333
                       -1   1.224646799e-16                 0       0.08333333333
             0.4472135955       0.894427191                 0       0.08333333333
            -0.4472135955      0.7236067977      0.5257311121       0.08333333333
             0.4472135955      0.2763932023      0.8506508084       0.08333333333
            -0.4472135955     -0.2763932023      0.8506508084       0.08333333333
             0.4472135955     -0.7236067977      0.5257311121       0.08333333333
            -0.4472135955      -0.894427191   1.095357397e-16       0.08333333333
             0.4472135955     -0.7236067977     -0.5257311121       0.08333333333
            -0.4472135955     -0.2763932023     -0.8506508084       0.08333333333
             0.4472135955      0.2763932023     -0.8506508084       0.08333333333
            -0.4472135955      0.7236067977     -0.5257311121       0.08333333333
    Maximum cutoff radius 1.306

  Adding pseudopotential for H
   Linear grid  ri=0 rf=10 npts = 10001
    ECPComponentBuilder::buildSemiLocalAndLocal 
    Assuming Hartree unit
    Only one vps is found. Set the local component=0
   Number of angular momentum channels 1
   Maximum angular momentum channel 0
   Creating a Linear Grid Rmax=1.16639
  Using global grid with delta = 0.001
   Making L=0 a local potential with a radial cutoff of 9.998
  ... ParticleSet::addTable Reuse Table #1 ion0_e
  QMCHamiltonian::addOperator LocalECP to H, physical Hamiltonian 
  ... ParticleSet::addTable Reuse Table #1 ion0_e
  ... ParticleSet::addTable Reuse Table #1 ion0_e

  Using NonLocalECP potential 
    Maximum grid on a sphere for NonLocalECPotential: 12
  QMCHamiltonian::addOperator NonLocalECP to H, physical Hamiltonian 
QMCHamiltonian::addOperatorType added type pseudo named ELEMENT-ECP
  Distance table for AA: source/target = ion0
    PBC=open Orthorhombic=NA
 using Cartesian coordinates with 
  ... ParticleSet::addTable Create Table #0 ion0_ion0
  QMCHamiltonian::addOperator IonIon to H, physical Hamiltonian 
QMCHamiltonian::addOperatorType added type coulomb named IonIon

  QMCHamiltonian::add2WalkerProperty added
    5 to P::PropertyList 
    0 to P::Collectables 
    starting Index of the observables in P::PropertyList = 9
  Hamiltonian disables VirtualMoves
<init source="ion0" target="e">
  ... ParticleSet::addTable Reuse Table #0 ion0_ion0
</init>
ParticleSetPool::randomize 
=========================================================
 Summary of QMC systems 
=========================================================
ParticleSetPool has: 

  ParticleSet e : 0 4 8 

    8

    u  3.0184321918e-01  3.3482955163e-01 -5.6632310321e-01
    u  5.7707952449e-01  4.1376297187e-01  1.4043304582e-01
    u -2.0322099428e-01 -6.8498622776e-01  1.1591854941e-01
    u  4.3502291776e-01 -1.0565176050e+00  1.5489955734e+00
    d -4.0885417022e-02 -1.9380277294e-01 -6.9621180880e-01
    d -2.2945835963e-01 -5.7126524040e-01 -3.8071892669e-01
    d  4.2194800842e-02 -5.1929164633e-01  5.0249159163e-01
    d  5.6531707296e-02  7.2481529758e-01  1.2571911560e+00

  ParticleSet ion0 : 0 1 3 

    3

    O  0.0000000000e+00  0.0000000000e+00  0.0000000000e+00
    H -0.0000000000e+00 -1.4308249289e+00  1.1078707576e+00
    H  0.0000000000e+00  1.4308249289e+00  1.1078707576e+00

  Hamiltonian h0
  Kinetic         Kinetic energy
  ElecElec        CoulombAA source/target e

  LocalECP        LocalECPotential: ion0
  NonLocalECP     NonLocalECPotential: ion0
  IonIon          CoulombAA source/target ion0

Loop execution max-interations = 10

=========================================================
  Start QMCFixedSampleLinearOptimize
  File Root jopt-h2o.s000 append = no 
=========================================================
  Skip QMCDriver::putQMCInfo 
  Resetting Properties of the walkers 1 x 14
  Adding 1 walkers to 0 existing sets
  Total number of walkers: 3.2000000000e+02
  Total weight: 3.2000000000e+02

=========================================================
  Start VMCSingleOMP
  File Root jopt-h2o.s000 append = no 
=========================================================
  Using the current 1 walkers.
  Total number of walkers: 3.2000000000e+02
  Total weight: 3.2000000000e+02
  Resetting Properties of the walkers 1 x 14

<vmc function="put">
  qmc_counter=0  my_counter=0
  time step      = 5.0000000000e-01
  blocks         = 100
  steps          = 2
  substeps       = 20
  current        = 0
  target samples = 5.1200000000e+04
  walkers/mpi    = 1

  stepsbetweensamples = 1
<parameter name="blocks" condition="int">100</parameter>
<parameter name="check_properties" condition="int">100</parameter>
<parameter name="checkproperties" condition="int">100</parameter>
<parameter name="current" condition="int">0</parameter>
<parameter name="dmcwalkersperthread" condition="real">1.6000000000e+02</parameter>
<parameter name="maxcpusecs" condition="real">3.6000000000e+05</parameter>
<parameter name="record_configs" condition="int">0</parameter>
<parameter name="record_walkers" condition="int">1</parameter>
<parameter name="recordconfigs" condition="int">0</parameter>
<parameter name="recordwalkers" condition="int">1</parameter>
<parameter name="rewind" condition="int">0</parameter>
<parameter name="samples" condition="real">5.1200000000e+04</parameter>
<parameter name="samplesperthread" condition="real">1.6000000000e+02</parameter>
<parameter name="steps" condition="int">2</parameter>
<parameter name="stepsbetweensamples" condition="int">1</parameter>
<parameter name="store_configs" condition="int">0</parameter>
<parameter name="storeconfigs" condition="int">0</parameter>
<parameter name="sub_steps" condition="int">20</parameter>
<parameter name="substeps" condition="int">20</parameter>
<parameter name="tau" condition="au">5.0000000000e-01</parameter>
<parameter name="time_step" condition="au">5.0000000000e-01</parameter>
<parameter name="timestep" condition="au">5.0000000000e-01</parameter>
<parameter name="use_drift" condition="string">yes</parameter>
<parameter name="usedrift" condition="string">yes</parameter>
<parameter name="walkers" condition="int">1</parameter>
<parameter name="warmup_steps" condition="int">25</parameter>
<parameter name="warmupsteps" condition="int">25</parameter>
  DumpConfig==false Nothing (configurations, state) will be saved.
  Walker Samples are dumped every 1 steps.
</vmc>
 Using QMCCostFunctionOMP::QMCCostFunctionOMP
<optimization-report>
<vmc stage="main" blocks="100">
  Initial partition of walkers 0 1 
  PbyP moves with drift, using VMCUpdatePbyPWithDriftFast

  Total Sample Size   =51200
  Walker distribution on root = 0 1 
  Anonymous Buffer size per walker 1883
MEMORY increase 0 MB VMCSingleOMP::resetRun
====================================================
  SimpleFixedNodeBranch::finalize after a VMC block
    QMC counter        = 0
    time step          = 0.5
    reference energy   = -17.0812
    reference variance = 1.14797
====================================================
  Execution time = 2.0982195540e+00
</vmc>
<opt stage="setup">
  <log>
   Reading configurations from h5FileRoot jopt-h2o.s000
  QMCCostFunctionOMP is created with 1
   Loading configuration from MCWalkerConfiguration::SampleStack 
    number of walkers before load 1
  Using Nonlocal PP in Opt: NonLocalECP
    number of walkers after load: 160 
Using buffers for temporary storage in QMCCostFunction.

Memory usage: 
Linear method (approx matrix usage: 4*N^2): 1.0025280000e+00 MB
Deriv,HDerivRecord:      6.7968000000e-01 MB
Buffer memory cost:     MB/walker       MB/total 
Orbitals only:           5.1200000000e-04      8.1920000000e-02
Orbitals + dervs:        2.5600000000e-03      4.0960000000e-01
Inverse:                 2.5600000000e-04      4.0960000000e-02
Determinants:            6.2560000000e-03      1.0009600000e+00
  VMC Eavg = -1.7084034058e+01
  VMC Evar = 1.1927520231e+00
  Total weights = 5.1200000000e+04
  Execution time = 4.4125605299e-01
  </log>
</opt>
<opt stage="main" walkers="51200">
  <log>
Iteration: 1/1
od_largest 1.0296751459e+08
  stabilityBase -6.0000000000e+00
  stabilizerScale 2.0000000000e+00
  Using XS:-6.0000000000e+00 0 0
ERROR CostFunction-> Number of Effective Walkers is too small 8.6769611113e+00 NumWalkersEff/NumSamples 1.6947189671e-04
ERROR CostFunction-> Number of Effective Walkers is too small 1.0002754333e+00 NumWalkersEff/NumSamples 1.9536629557e-05
ERROR CostFunction-> Number of Effective Walkers is too small 1.0000000431e+00 NumWalkersEff/NumSamples 1.9531250842e-05
ERROR CostFunction-> Number of Effective Walkers is too small 1.0000000000e+00 NumWalkersEff/NumSamples 1.9531250000e-05
ERROR CostFunction-> Number of Effective Walkers is too small 1.0000000000e+00 NumWalkersEff/NumSamples 1.9531250000e-05
ERROR CostFunction-> Number of Effective Walkers is too small 1.0000000000e+00 NumWalkersEff/NumSamples 1.9531250000e-05
  Failed Step. Largest LM parameter change:4.1065185930e+02
ERROR   Using XS:-4.0000000000e+00 1 0
ERROR CostFunction-> Number of Effective Walkers is too small 8.5896422696e+00 NumWalkersEff/NumSamples 1.6776645058e-04
ERROR CostFunction-> Number of Effective Walkers is too small 1.0002699854e+00 NumWalkersEff/NumSamples 1.9536523152e-05
ERROR CostFunction-> Number of Effective Walkers is too small 1.0000000414e+00 NumWalkersEff/NumSamples 1.9531250809e-05
ERROR CostFunction-> Number of Effective Walkers is too small 1.0000000000e+00 NumWalkersEff/NumSamples 1.9531250000e-05
ERROR CostFunction-> Number of Effective Walkers is too small 1.0000000000e+00 NumWalkersEff/NumSamples 1.9531250000e-05
ERROR CostFunction-> Number of Effective Walkers is too small 1.0000000000e+00 NumWalkersEff/NumSamples 1.9531250000e-05
  Failed Step. Largest LM parameter change:4.1157789220e+02
ERROR   Using XS:-2.0000000000e+00 2 0
ERROR CostFunction-> Number of Effective Walkers is too small 7.8280702314e+00 NumWalkersEff/NumSamples 1.5289199671e-04
ERROR CostFunction-> Number of Effective Walkers is too small 1.0002238036e+00 NumWalkersEff/NumSamples 1.9535621163e-05
ERROR CostFunction-> Number of Effective Walkers is too small 1.0000000285e+00 NumWalkersEff/NumSamples 1.9531250557e-05
ERROR CostFunction-> Number of Effective Walkers is too small 1.0000000000e+00 NumWalkersEff/NumSamples 1.9531250000e-05
ERROR CostFunction-> Number of Effective Walkers is too small 1.0000000000e+00 NumWalkersEff/NumSamples 1.9531250000e-05
ERROR CostFunction-> Number of Effective Walkers is too small 1.0000000000e+00 NumWalkersEff/NumSamples 1.9531250000e-05
  Failed Step. Largest LM parameter change:4.2027452355e+02
ERROR   Using XS:0.0000000000e+00 3 0
Before:  ax = 0.0000000000e+00  bx=5.0639061277e-01  cx=0.0000000000e+00
After:  ax = 5.0639061277e-01  bx=1.1998250288e+00  cx=1.3257478415e+00
Minimum found at lambda = 1.2354000826e+00
  Failed Step. Largest LM parameter change:2.6746649784e+01
ERROR   Using XS:2.0000000000e+00 4 0
ERROR CostFunction-> Number of Effective Walkers is too small 1.0847365158e+00 NumWalkersEff/NumSamples 2.1186260074e-05
ERROR CostFunction-> Number of Effective Walkers is too small 4.4442808616e+02 NumWalkersEff/NumSamples 8.6802360578e-03
ERROR CostFunction-> Number of Effective Walkers is too small 1.0677672621e+00 NumWalkersEff/NumSamples 2.0854829337e-05
ERROR CostFunction-> Number of Effective Walkers is too small 1.1499992861e+00 NumWalkersEff/NumSamples 2.2460923556e-05
ERROR CostFunction-> Number of Effective Walkers is too small 1.0472430493e+00 NumWalkersEff/NumSamples 2.0453965807e-05
ERROR CostFunction-> Number of Effective Walkers is too small 1.0677672621e+00 NumWalkersEff/NumSamples 2.0854829337e-05
  Failed Step. Largest LM parameter change:1.7884172940e+02
ERROR   Using XS:4.0000000000e+00 5 0
  Good Step. Largest LM parameter change:5.2278060790e-01
 OldCost: -1.6170194754e+01 NewCost: -1.6332963442e+01 Delta Cost:-1.6276868784e-01
      Current ene:     -1.7214585809e+01
      Current var:     4.1786153650e-01
      Current ene_urw:     -1.7189508726e+01
      Current var_urw: 4.9031450541e-01
Setting new Parameters
ERROR   Execution time = 9.7803940860e+00
  </log>
  <optVariables href="jopt-h2o.s000.opt.xml">
CSFcoeff_1 -5.4282889269e-02 3 1  ON 0
CSFcoeff_2 4.7902217581e-02 3 1  ON 1
CSFcoeff_3 -3.6610010838e-02 3 1  ON 2
CSFcoeff_4 3.3996891216e-02 3 1  ON 3
CSFcoeff_5 -3.1543279626e-02 3 1  ON 4
CSFcoeff_6 -3.1977649959e-02 3 1  ON 5
CSFcoeff_7 2.6988564881e-02 3 1  ON 6
CSFcoeff_8 -2.4211690333e-02 3 1  ON 7
CSFcoeff_9 2.6032299940e-02 3 1  ON 8
CSFcoeff_10 2.4120873371e-02 3 1  ON 9
CSFcoeff_11 2.2473874964e-02 3 1  ON 10
CSFcoeff_12 -2.2898048826e-02 3 1  ON 11
CSFcoeff_13 -1.8325250953e-02 3 1  ON 12
CSFcoeff_14 -2.4628822298e-02 3 1  ON 13
CSFcoeff_15 -2.3147912997e-02 3 1  ON 14
CSFcoeff_16 1.8382999916e-02 3 1  ON 15
CSFcoeff_17 1.3972100918e-02 3 1  ON 16
CSFcoeff_18 -1.6177321678e-02 3 1  ON 17
CSFcoeff_19 -1.3587543283e-02 3 1  ON 18
CSFcoeff_20 -1.0110023779e-02 3 1  ON 19
CSFcoeff_21 -7.2706317822e-03 3 1  ON 20
CSFcoeff_22 -1.1172561640e-02 3 1  ON 21
CSFcoeff_23 -7.9623556687e-03 3 1  ON 22
CSFcoeff_24 1.0502374067e-02 3 1  ON 23
CSFcoeff_25 -1.3141329115e-02 3 1  ON 24
CSFcoeff_26 7.9893623316e-03 3 1  ON 25
CSFcoeff_27 7.0027945564e-03 3 1  ON 26
CSFcoeff_28 -9.1741225938e-03 3 1  ON 27
CSFcoeff_29 4.9900694105e-03 3 1  ON 28
CSFcoeff_30 6.2029507836e-03 3 1  ON 29
CSFcoeff_31 -1.7743345687e-03 3 1  ON 30
CSFcoeff_32 -9.0439603234e-03 3 1  ON 31
CSFcoeff_33 4.3422550802e-03 3 1  ON 32
uu_0 2.6075795427e-01 1 1  ON 33
uu_1 5.1004651330e-02 1 1  ON 34
uu_2 1.5384861013e-02 1 1  ON 35
uu_3 9.8453544945e-03 1 1  ON 36
uu_4 7.1763074857e-03 1 1  ON 37
uu_5 -2.0239310650e-03 1 1  ON 38
uu_6 -7.8352882813e-03 1 1  ON 39
uu_7 -3.3930646926e-03 1 1  ON 40
uu_8 1.5691425785e-03 1 1  ON 41
uu_9 -4.0703796040e-02 1 1  ON 42
ud_0 3.9506384076e-01 1 1  ON 43
ud_1 6.5380449182e-02 1 1  ON 44
ud_2 2.7050644283e-02 1 1  ON 45
ud_3 -3.8677969512e-03 1 1  ON 46
ud_4 -1.4519534239e-02 1 1  ON 47
ud_5 -2.5592410150e-02 1 1  ON 48
ud_6 -3.0363778094e-02 1 1  ON 49
ud_7 -2.9039465564e-02 1 1  ON 50
ud_8 -4.5079976967e-02 1 1  ON 51
ud_9 -4.3112790153e-02 1 1  ON 52
eO_0 -2.9030052782e-01 1 1  ON 53
eO_1 -1.3212744516e-01 1 1  ON 54
eO_2 1.2409038667e-01 1 1  ON 55
eO_3 2.8513901985e-01 1 1  ON 56
eO_4 3.6094854587e-01 1 1  ON 57
eO_5 3.6660890702e-01 1 1  ON 58
eO_6 3.9988487877e-01 1 1  ON 59
eO_7 4.1056601718e-01 1 1  ON 60
eO_8 3.8311568785e-01 1 1  ON 61
eO_9 5.2278060790e-01 1 1  ON 62
eH_0 4.2061670059e-03 1 1  ON 63
eH_1 2.1115663805e-02 1 1  ON 64
eH_2 3.0625674195e-02 1 1  ON 65
eH_3 6.5543218440e-02 1 1  ON 66
eH_4 7.3676710576e-02 1 1  ON 67
eH_5 6.3792585398e-02 1 1  ON 68
eH_6 6.2319925204e-02 1 1  ON 69
eH_7 7.2564096464e-02 1 1  ON 70
eH_8 4.9814882716e-02 1 1  ON 71
eH_9 1.3869099365e-01 1 1  ON 72
uuO_0 3.9746119938e-06 1 1  ON 73
uuO_1 -9.1687295516e-06 1 1  ON 74
uuO_2 -5.0215551614e-06 1 1  ON 75
uuO_3 -2.9600634467e-06 1 1  ON 76
uuO_4 -9.4426045699e-07 1 1  ON 77
uuO_5 1.7094457650e-06 1 1  ON 78
uuO_6 -3.1952266179e-05 1 1  ON 79
uuO_7 3.1642730260e-05 1 1  ON 80
uuO_8 7.1646979961e-06 1 1  ON 81
uuO_9 1.5597453110e-05 1 1  ON 82
uuO_10 -1.4118538137e-06 1 1  ON 83
uuO_11 -1.6043534611e-05 1 1  ON 84
uuO_12 -1.0936495694e-06 1 1  ON 85
uuO_13 2.1267020602e-07 1 1  ON 86
uuO_14 3.5765869483e-06 1 1  ON 87
uuO_15 -2.3401481480e-07 1 1  ON 88
uuO_16 -1.7111004382e-05 1 1  ON 89
uuO_17 1.8977318317e-06 1 1  ON 90
uuO_18 1.3332357323e-05 1 1  ON 91
uuO_19 -1.2727313756e-06 1 1  ON 92
uuO_20 2.7476815950e-06 1 1  ON 93
uuO_21 -3.1113194612e-06 1 1  ON 94
uuO_22 4.7290006091e-07 1 1  ON 95
uuO_23 -3.2399594378e-07 1 1  ON 96
uuO_24 7.4447781755e-07 1 1  ON 97
uuO_25 -1.3472364625e-07 1 1  ON 98
udO_0 2.8105114883e-06 1 1  ON 99
udO_1 1.0544777844e-05 1 1  ON 100
udO_2 5.9017037247e-06 1 1  ON 101
udO_3 -1.1030757893e-05 1 1  ON 102
udO_4 -4.1551191782e-06 1 1  ON 103
udO_5 -1.9264335516e-06 1 1  ON 104
udO_6 6.0571980695e-06 1 1  ON 105
udO_7 7.9162806922e-06 1 1  ON 106
udO_8 2.0819778504e-05 1 1  ON 107
udO_9 -3.2508774227e-06 1 1  ON 108
udO_10 -6.9748353349e-06 1 1  ON 109
udO_11 -1.4425595871e-05 1 1  ON 110
udO_12 -6.4428441289e-06 1 1  ON 111
udO_13 1.1295059056e-05 1 1  ON 112
udO_14 7.0179501018e-06 1 1  ON 113
udO_15 -8.9201116207e-08 1 1  ON 114
udO_16 6.2378970489e-06 1 1  ON 115
udO_17 1.4515400497e-05 1 1  ON 116
udO_18 8.1797007704e-06 1 1  ON 117
udO_19 1.5005869778e-06 1 1  ON 118
udO_20 -7.8843293332e-06 1 1  ON 119
udO_21 -2.4214572103e-06 1 1  ON 120
udO_22 1.8455757224e-07 1 1  ON 121
udO_23 2.7418928578e-06 1 1  ON 122
udO_24 2.3801326212e-07 1 1  ON 123
udO_25 -5.4862796841e-08 1 1  ON 124
uuH_0 -2.9254831320e-06 1 1  ON 125
uuH_1 1.2133378578e-05 1 1  ON 126
uuH_2 1.6815507240e-05 1 1  ON 127
uuH_3 4.4813256683e-06 1 1  ON 128
uuH_4 -9.7126040281e-07 1 1  ON 129
uuH_5 -1.6633012864e-06 1 1  ON 130
uuH_6 2.8367632578e-05 1 1  ON 131
uuH_7 -2.9372076427e-06 1 1  ON 132
uuH_8 1.1219402883e-05 1 1  ON 133
uuH_9 -1.7890724915e-05 1 1  ON 134
uuH_10 6.9731638593e-06 1 1  ON 135
uuH_11 -2.1907497825e-05 1 1  ON 136
uuH_12 -1.2827077250e-06 1 1  ON 137
uuH_13 -5.7440790511e-06 1 1  ON 138
uuH_14 3.7181448796e-07 1 1  ON 139
uuH_15 1.0662365207e-07 1 1  ON 140
uuH_16 3.5461678516e-05 1 1  ON 141
uuH_17 -2.7617938084e-05 1 1  ON 142
uuH_18 2.6562739760e-05 1 1  ON 143
uuH_19 -1.8783569789e-06 1 1  ON 144
uuH_20 -5.5137647500e-06 1 1  ON 145
uuH_21 -3.4819300086e-06 1 1  ON 146
uuH_22 4.3412596061e-07 1 1  ON 147
uuH_23 1.8875129148e-06 1 1  ON 148
uuH_24 5.7762435327e-07 1 1  ON 149
uuH_25 -1.0458657594e-07 1 1  ON 150
udH_0 1.6721393856e-06 1 1  ON 151
udH_1 -6.1198672529e-09 1 1  ON 152
udH_2 3.5306234604e-06 1 1  ON 153
udH_3 -1.6630690320e-06 1 1  ON 154
udH_4 -1.1326098628e-06 1 1  ON 155
udH_5 -3.3997660069e-07 1 1  ON 156
udH_6 -3.6407392556e-06 1 1  ON 157
udH_7 5.1333383550e-06 1 1  ON 158
udH_8 7.9451406004e-06 1 1  ON 159
udH_9 2.3671472415e-06 1 1  ON 160
udH_10 9.2953595228e-07 1 1  ON 161
udH_11 -1.2061288336e-05 1 1  ON 162
udH_12 -1.9057467771e-06 1 1  ON 163
udH_13 -5.4980695558e-07 1 1  ON 164
udH_14 2.1513441410e-06 1 1  ON 165
udH_15 -2.1762759818e-08 1 1  ON 166
udH_16 9.4794462139e-07 1 1  ON 167
udH_17 -6.2300751803e-06 1 1  ON 168
udH_18 1.3388327439e-05 1 1  ON 169
udH_19 -5.6992948262e-07 1 1  ON 170
udH_20 4.8280070582e-08 1 1  ON 171
udH_21 -2.5748991768e-06 1 1  ON 172
udH_22 3.1389734586e-07 1 1  ON 173
udH_23 3.0343633252e-09 1 1  ON 174
udH_24 5.4309243472e-07 1 1  ON 175
udH_25 -9.5405091915e-08 1 1  ON 176
  </optVariables>
   Restore the number of walkers to 1, removing 159 walkers.
</opt>
</optimization-report>
  QMC Execution time = 9.7959381680e+00 secs 
  Reusing QMCFixedSampleLinearOptimize
 Using QMCCostFunctionOMP::QMCCostFunctionOMP

=========================================================
  Start QMCFixedSampleLinearOptimize
  File Root jopt-h2o.s001 append = no 
=========================================================
  Skip QMCDriver::putQMCInfo 
  Resetting Properties of the walkers 1 x 14

=========================================================
  Start VMCSingleOMP
  File Root jopt-h2o.s001 append = no 
=========================================================
Using existing walkers 
  Resetting Properties of the walkers 1 x 14

<vmc function="put">
  qmc_counter=1  my_counter=1
  time step      = 5.0000000000e-01
  blocks         = 100
  steps          = 2
  substeps       = 20
  current        = 0
  target samples = 5.1200000000e+04
  walkers/mpi    = 1

  stepsbetweensamples = 1
<parameter name="blocks" condition="int">100</parameter>
<parameter name="check_properties" condition="int">100</parameter>
<parameter name="checkproperties" condition="int">100</parameter>
<parameter name="current" condition="int">0</parameter>
<parameter name="dmcwalkersperthread" condition="real">1.6000000000e+02</parameter>
<parameter name="maxcpusecs" condition="real">3.6000000000e+05</parameter>
<parameter name="record_configs" condition="int">0</parameter>
<parameter name="record_walkers" condition="int">1</parameter>
<parameter name="recordconfigs" condition="int">0</parameter>
<parameter name="recordwalkers" condition="int">1</parameter>
<parameter name="rewind" condition="int">0</parameter>
<parameter name="samples" condition="real">5.1200000000e+04</parameter>
<parameter name="samplesperthread" condition="real">1.6000000000e+02</parameter>
<parameter name="steps" condition="int">2</parameter>
<parameter name="stepsbetweensamples" condition="int">1</parameter>
<parameter name="store_configs" condition="int">0</parameter>
<parameter name="storeconfigs" condition="int">0</parameter>
<parameter name="sub_steps" condition="int">20</parameter>
<parameter name="substeps" condition="int">20</parameter>
<parameter name="tau" condition="au">5.0000000000e-01</parameter>
<parameter name="time_step" condition="au">5.0000000000e-01</parameter>
<parameter name="timestep" condition="au">5.0000000000e-01</parameter>
<parameter name="use_drift" condition="string">yes</parameter>
<parameter name="usedrift" condition="string">yes</parameter>
<parameter name="walkers" condition="int">1</parameter>
<parameter name="warmup_steps" condition="int">25</parameter>
<parameter name="warmupsteps" condition="int">25</parameter>
  DumpConfig==false Nothing (configurations, state) will be saved.
  Walker Samples are dumped every 1 steps.
</vmc>
  EstimatorManager::add replace LocalEnergy estimator.
  EstimatorManager::add replace LocalEnergy estimator.
<optimization-report>
<vmc stage="main" blocks="100">
  Cannot make clones again. Use existing 1 clones
  Initial partition of walkers 0 1 
  Total Sample Size   =51200
  Walker distribution on root = 0 1 
====================================================
  SimpleFixedNodeBranch::finalize after a VMC block
    QMC counter        = 1
    time step          = 0.5
    reference energy   = -17.1821
    reference variance = 0.68469
====================================================
  Execution time = 2.0461324640e+00
</vmc>
<opt stage="setup">
  <log>
   Reading configurations from h5FileRoot jopt-h2o.s001
  QMCCostFunctionOMP is created with 1
   Loading configuration from MCWalkerConfiguration::SampleStack 
    number of walkers before load 1
  Using Nonlocal PP in Opt: NonLocalECP
    number of walkers after load: 160 
Using buffers for temporary storage in QMCCostFunction.

Memory usage: 
Linear method (approx matrix usage: 4*N^2): 1.0025280000e+00 MB
Deriv,HDerivRecord:      6.7968000000e-01 MB
Buffer memory cost:     MB/walker       MB/total 
Orbitals only:           5.1200000000e-04      8.1920000000e-02
Orbitals + dervs:        2.5600000000e-03      4.0960000000e-01
Inverse:                 2.5600000000e-04      4.0960000000e-02
Determinants:            6.2560000000e-03      1.0009600000e+00
  VMC Eavg = -1.7095379874e+01
  VMC Evar = 5.2107152195e-01
  Total weights = 5.1200000000e+04
  Execution time = 4.3579357800e-01
  </log>
</opt>
<opt stage="main" walkers="51200">
  <log>
Iteration: 1/1
od_largest 9.5376984490e+07
  stabilityBase -6.0000000000e+00
  stabilizerScale 2.0000000000e+00
  Using XS:-6.0000000000e+00 0 0
ERROR CostFunction-> Number of Effective Walkers is too small 1.6238487095e+00 NumWalkersEff/NumSamples 3.1715795108e-05
ERROR CostFunction-> Number of Effective Walkers is too small 1.4196651415e+02 NumWalkersEff/NumSamples 2.7727834794e-03
ERROR CostFunction-> Number of Effective Walkers is too small 1.0040684133e+00 NumWalkersEff/NumSamples 1.9610711198e-05
ERROR CostFunction-> Number of Effective Walkers is too small 1.0000093373e+00 NumWalkersEff/NumSamples 1.9531432370e-05
ERROR CostFunction-> Number of Effective Walkers is too small 1.7757858740e+00 NumWalkersEff/NumSamples 3.4683317851e-05
ERROR CostFunction-> Number of Effective Walkers is too small 1.0040684133e+00 NumWalkersEff/NumSamples 1.9610711198e-05
  Failed Step. Largest LM parameter change:6.2203115229e+01
ERROR   Using XS:-4.0000000000e+00 1 0
ERROR CostFunction-> Number of Effective Walkers is too small 1.6222340824e+00 NumWalkersEff/NumSamples 3.1684259422e-05
ERROR CostFunction-> Number of Effective Walkers is too small 1.3711409529e+02 NumWalkersEff/NumSamples 2.6780096736e-03
ERROR CostFunction-> Number of Effective Walkers is too small 1.0037313063e+00 NumWalkersEff/NumSamples 1.9604127077e-05
ERROR CostFunction-> Number of Effective Walkers is too small 1.0000085208e+00 NumWalkersEff/NumSamples 1.9531416421e-05
ERROR CostFunction-> Number of Effective Walkers is too small 1.6485390314e+00 NumWalkersEff/NumSamples 3.2198027956e-05
ERROR CostFunction-> Number of Effective Walkers is too small 1.0037313063e+00 NumWalkersEff/NumSamples 1.9604127077e-05
  Failed Step. Largest LM parameter change:6.2496779693e+01
ERROR   Using XS:-2.0000000000e+00 2 0
ERROR CostFunction-> Number of Effective Walkers is too small 7.6700230676e+00 NumWalkersEff/NumSamples 1.4980513804e-04
ERROR CostFunction-> Number of Effective Walkers is too small 2.4747734149e+02 NumWalkersEff/NumSamples 4.8335418260e-03
ERROR CostFunction-> Number of Effective Walkers is too small 1.0000017410e+00 NumWalkersEff/NumSamples 1.9531284004e-05
ERROR CostFunction-> Number of Effective Walkers is too small 1.0000000066e+00 NumWalkersEff/NumSamples 1.9531250129e-05
ERROR CostFunction-> Number of Effective Walkers is too small 1.0000299939e+00 NumWalkersEff/NumSamples 1.9531835819e-05
ERROR CostFunction-> Number of Effective Walkers is too small 1.0000017410e+00 NumWalkersEff/NumSamples 1.9531284004e-05
  Failed Step. Largest LM parameter change:5.0343264824e+01
ERROR   Using XS:0.0000000000e+00 3 0
ERROR CostFunction-> Number of Effective Walkers is too small 5.6269615471e+00 NumWalkersEff/NumSamples 1.0990159272e-04
ERROR CostFunction-> Number of Effective Walkers is too small 5.6210750323e+01 NumWalkersEff/NumSamples 1.0978662172e-03
ERROR CostFunction-> Number of Effective Walkers is too small 1.0000002980e+00 NumWalkersEff/NumSamples 1.9531255821e-05
ERROR CostFunction-> Number of Effective Walkers is too small 1.0000000006e+00 NumWalkersEff/NumSamples 1.9531250011e-05
ERROR CostFunction-> Number of Effective Walkers is too small 1.0000070861e+00 NumWalkersEff/NumSamples 1.9531388400e-05
ERROR CostFunction-> Number of Effective Walkers is too small 1.0000002980e+00 NumWalkersEff/NumSamples 1.9531255821e-05
  Failed Step. Largest LM parameter change:5.6754049941e+01
ERROR   Using XS:2.0000000000e+00 4 0
  Good Step. Largest LM parameter change:1.5258883716e+00
 OldCost: -1.6334891143e+01 NewCost: -1.6378377240e+01 Delta Cost:-4.3486097660e-02
      Current ene:     -1.7251086337e+01
      Current var:     2.0309559000e-01
      Current ene_urw:     -1.7244857694e+01
      Current var_urw: 2.0752320254e-01
Setting new Parameters
ERROR   Execution time = 7.2126659070e+00
  </log>
  <optVariables href="jopt-h2o.s001.opt.xml">
CSFcoeff_1 -3.6497930124e-02 3 1  ON 0
CSFcoeff_2 2.7218475542e-02 3 1  ON 1
CSFcoeff_3 -1.7955545935e-02 3 1  ON 2
CSFcoeff_4 2.0314307337e-02 3 1  ON 3
CSFcoeff_5 -1.3519759664e-02 3 1  ON 4
CSFcoeff_6 -2.4780573890e-02 3 1  ON 5
CSFcoeff_7 1.4185522592e-02 3 1  ON 6
CSFcoeff_8 -1.7900983964e-02 3 1  ON 7
CSFcoeff_9 1.2051893688e-02 3 1  ON 8
CSFcoeff_10 1.4821792473e-02 3 1  ON 9
CSFcoeff_11 1.9042906535e-02 3 1  ON 10
CSFcoeff_12 -1.5826851007e-02 3 1  ON 11
CSFcoeff_13 -9.8091312549e-03 3 1  ON 12
CSFcoeff_14 -2.1167958352e-02 3 1  ON 13
CSFcoeff_15 -1.7745382590e-02 3 1  ON 14
CSFcoeff_16 4.6888411841e-03 3 1  ON 15
CSFcoeff_17 1.1148631835e-02 3 1  ON 16
CSFcoeff_18 -9.7861182093e-03 3 1  ON 17
CSFcoeff_19 -1.3489083468e-02 3 1  ON 18
CSFcoeff_20 -6.5038756960e-03 3 1  ON 19
CSFcoeff_21 -3.0225036361e-03 3 1  ON 20
CSFcoeff_22 -4.8578861268e-03 3 1  ON 21
CSFcoeff_23 -3.5582345141e-03 3 1  ON 22
CSFcoeff_24 3.3254673866e-03 3 1  ON 23
CSFcoeff_25 -1.5099905872e-02 3 1  ON 24
CSFcoeff_26 3.0493573506e-03 3 1  ON 25
CSFcoeff_27 6.3353897928e-03 3 1  ON 26
CSFcoeff_28 -3.4807021833e-03 3 1  ON 27
CSFcoeff_29 6.4436773763e-03 3 1  ON 28
CSFcoeff_30 -1.3006029936e-03 3 1  ON 29
CSFcoeff_31 -5.1154533702e-03 3 1  ON 30
CSFcoeff_32 -5.1122986825e-03 3 1  ON 31
CSFcoeff_33 1.7741727140e-03 3 1  ON 32
uu_0 2.6197202093e-01 1 1  ON 33
uu_1 1.5184372434e-01 1 1  ON 34
uu_2 4.9679572573e-02 1 1  ON 35
uu_3 3.7771551500e-03 1 1  ON 36
uu_4 -2.8846251930e-02 1 1  ON 37
uu_5 -4.6568498963e-02 1 1  ON 38
uu_6 -5.8239834925e-02 1 1  ON 39
uu_7 -6.6804067240e-02 1 1  ON 40
uu_8 -1.0374391245e-01 1 1  ON 41
uu_9 -3.2421701875e-02 1 1  ON 42
ud_0 5.8417505677e-01 1 1  ON 43
ud_1 3.1657673098e-01 1 1  ON 44
ud_2 1.4994381781e-01 1 1  ON 45
ud_3 1.0465798262e-01 1 1  ON 46
ud_4 8.1959371125e-02 1 1  ON 47
ud_5 6.8262251465e-02 1 1  ON 48
ud_6 4.7074972465e-02 1 1  ON 49
ud_7 1.3647313836e-02 1 1  ON 50
ud_8 -1.4317937673e-02 1 1  ON 51
ud_9 -5.9135849558e-03 1 1  ON 52
eO_0 -1.8161888995e+00 1 1  ON 53
eO_1 -1.4958007588e+00 1 1  ON 54
eO_2 -8.0176036639e-01 1 1  ON 55
eO_3 -2.3395606778e-01 1 1  ON 56
eO_4 1.6825021667e-01 1 1  ON 57
eO_5 5.1749839871e-01 1 1  ON 58
eO_6 5.8730769347e-01 1 1  ON 59
eO_7 6.8928952181e-01 1 1  ON 60
eO_8 5.3576742463e-01 1 1  ON 61
eO_9 5.8325335281e-01 1 1  ON 62
eH_0 -4.2229628999e-01 1 1  ON 63
eH_1 -4.0230716767e-01 1 1  ON 64
eH_2 -3.7354360536e-01 1 1  ON 65
eH_3 -3.2706815953e-01 1 1  ON 66
eH_4 -3.1027507919e-01 1 1  ON 67
eH_5 -3.1107840119e-01 1 1  ON 68
eH_6 -3.0626759355e-01 1 1  ON 69
eH_7 -2.9248814781e-01 1 1  ON 70
eH_8 -2.5416908398e-01 1 1  ON 71
eH_9 -1.6408724077e-01 1 1  ON 72
uuO_0 1.4823898482e-05 1 1  ON 73
uuO_1 7.7522926448e-06 1 1  ON 74
uuO_2 -1.5023563666e-05 1 1  ON 75
uuO_3 -1.8936606005e-05 1 1  ON 76
uuO_4 -3.3792693875e-06 1 1  ON 77
uuO_5 4.8567054640e-06 1 1  ON 78
uuO_6 1.3246721362e-06 1 1  ON 79
uuO_7 -2.6233501664e-05 1 1  ON 80
uuO_8 -4.2654383351e-06 1 1  ON 81
uuO_9 -1.1840684770e-05 1 1  ON 82
uuO_10 -1.9065114317e-05 1 1  ON 83
uuO_11 2.6774965106e-05 1 1  ON 84
uuO_12 -2.8529597598e-06 1 1  ON 85
uuO_13 2.5694862335e-05 1 1  ON 86
uuO_14 3.1218632800e-07 1 1  ON 87
uuO_15 2.9970251467e-07 1 1  ON 88
uuO_16 2.4270296498e-05 1 1  ON 89
uuO_17 2.8770184433e-05 1 1  ON 90
uuO_18 -2.6147115524e-05 1 1  ON 91
uuO_19 4.1878712186e-06 1 1  ON 92
uuO_20 -1.7299878601e-05 1 1  ON 93
uuO_21 4.3810602295e-06 1 1  ON 94
uuO_22 -8.7904739646e-07 1 1  ON 95
uuO_23 6.4414101998e-06 1 1  ON 96
uuO_24 -1.3261236038e-06 1 1  ON 97
uuO_25 2.5389078519e-07 1 1  ON 98
udO_0 2.6363533443e-07 1 1  ON 99
udO_1 2.1758461832e-05 1 1  ON 100
udO_2 1.8642778146e-05 1 1  ON 101
udO_3 -8.9945940494e-06 1 1  ON 102
udO_4 -4.5803283092e-06 1 1  ON 103
udO_5 1.7780164789e-06 1 1  ON 104
udO_6 5.0054992406e-05 1 1  ON 105
udO_7 -2.3501133968e-05 1 1  ON 106
udO_8 1.2332193555e-05 1 1  ON 107
udO_9 -3.0434801566e-05 1 1  ON 108
udO_10 -6.5438883745e-06 1 1  ON 109
udO_11 4.6049892868e-07 1 1  ON 110
udO_12 -4.8715671000e-06 1 1  ON 111
udO_13 6.0051900154e-06 1 1  ON 112
udO_14 7.2850354504e-07 1 1  ON 113
udO_15 4.4386740304e-07 1 1  ON 114
udO_16 5.2999491573e-05 1 1  ON 115
udO_17 -4.0152962477e-06 1 1  ON 116
udO_18 -5.0469797974e-06 1 1  ON 117
udO_19 3.8763984185e-06 1 1  ON 118
udO_20 -1.2369408248e-05 1 1  ON 119
udO_21 2.0747838733e-06 1 1  ON 120
udO_22 -7.7348749685e-07 1 1  ON 121
udO_23 4.2252287608e-06 1 1  ON 122
udO_24 -9.7596266252e-07 1 1  ON 123
udO_25 2.2633912932e-07 1 1  ON 124
uuH_0 4.9186898155e-06 1 1  ON 125
uuH_1 3.2790736082e-05 1 1  ON 126
uuH_2 5.6249688204e-06 1 1  ON 127
uuH_3 -1.7025168340e-05 1 1  ON 128
uuH_4 -3.8916554743e-06 1 1  ON 129
uuH_5 -1.9693132162e-06 1 1  ON 130
uuH_6 4.3304839633e-05 1 1  ON 131
uuH_7 -2.3516774449e-05 1 1  ON 132
uuH_8 5.2678432503e-06 1 1  ON 133
uuH_9 -3.3226770281e-05 1 1  ON 134
uuH_10 -1.2780717827e-05 1 1  ON 135
uuH_11 1.0412229402e-05 1 1  ON 136
uuH_12 -2.6219067973e-06 1 1  ON 137
uuH_13 2.0233093291e-05 1 1  ON 138
uuH_14 1.3362879132e-07 1 1  ON 139
uuH_15 2.4355177207e-07 1 1  ON 140
uuH_16 3.3191107798e-05 1 1  ON 141
uuH_17 1.1789829836e-05 1 1  ON 142
uuH_18 -9.6873678131e-06 1 1  ON 143
uuH_19 2.0516091902e-06 1 1  ON 144
uuH_20 -1.2759577004e-05 1 1  ON 145
uuH_21 1.8417351469e-06 1 1  ON 146
uuH_22 -3.9862126762e-07 1 1  ON 147
uuH_23 3.3335823600e-06 1 1  ON 148
uuH_24 -5.7141715112e-07 1 1  ON 149
uuH_25 1.0744394760e-07 1 1  ON 150
udH_0 -4.2051531491e-06 1 1  ON 151
udH_1 -7.9937428644e-06 1 1  ON 152
udH_2 5.3020849041e-06 1 1  ON 153
udH_3 4.0064180724e-07 1 1  ON 154
udH_4 -2.0326635267e-06 1 1  ON 155
udH_5 7.4867030606e-07 1 1  ON 156
udH_6 2.8650135736e-06 1 1  ON 157
udH_7 -8.8534874182e-06 1 1  ON 158
udH_8 -2.4114255776e-07 1 1  ON 159
udH_9 1.3470427822e-06 1 1  ON 160
udH_10 -1.7474228041e-06 1 1  ON 161
udH_11 5.6535545054e-06 1 1  ON 162
udH_12 -9.0432997704e-07 1 1  ON 163
udH_13 3.7510723350e-07 1 1  ON 164
udH_14 -1.4324681567e-06 1 1  ON 165
udH_15 2.7263950027e-07 1 1  ON 166
udH_16 1.0260049973e-05 1 1  ON 167
udH_17 -2.3206058046e-06 1 1  ON 168
udH_18 -6.6443009675e-06 1 1  ON 169
udH_19 1.7481976747e-06 1 1  ON 170
udH_20 -3.3189103200e-06 1 1  ON 171
udH_21 2.0018477516e-06 1 1  ON 172
udH_22 -4.9698366344e-07 1 1  ON 173
udH_23 1.1077508696e-06 1 1  ON 174
udH_24 -5.9118131379e-07 1 1  ON 175
udH_25 1.4255730357e-07 1 1  ON 176
  </optVariables>
   Restore the number of walkers to 1, removing 159 walkers.
</opt>
</optimization-report>
  QMC Execution time = 7.2264294300e+00 secs 
  Reusing QMCFixedSampleLinearOptimize
 Using QMCCostFunctionOMP::QMCCostFunctionOMP

=========================================================
  Start QMCFixedSampleLinearOptimize
  File Root jopt-h2o.s002 append = no 
=========================================================
  Skip QMCDriver::putQMCInfo 
  Resetting Properties of the walkers 1 x 14

=========================================================
  Start VMCSingleOMP
  File Root jopt-h2o.s002 append = no 
=========================================================
Using existing walkers 
  Resetting Properties of the walkers 1 x 14

<vmc function="put">
  qmc_counter=2  my_counter=2
  time step      = 5.0000000000e-01
  blocks         = 100
  steps          = 2
  substeps       = 20
  current        = 0
  target samples = 5.1200000000e+04
  walkers/mpi    = 1

  stepsbetweensamples = 1
<parameter name="blocks" condition="int">100</parameter>
<parameter name="check_properties" condition="int">100</parameter>
<parameter name="checkproperties" condition="int">100</parameter>
<parameter name="current" condition="int">0</parameter>
<parameter name="dmcwalkersperthread" condition="real">1.6000000000e+02</parameter>
<parameter name="maxcpusecs" condition="real">3.6000000000e+05</parameter>
<parameter name="record_configs" condition="int">0</parameter>
<parameter name="record_walkers" condition="int">1</parameter>
<parameter name="recordconfigs" condition="int">0</parameter>
<parameter name="recordwalkers" condition="int">1</parameter>
<parameter name="rewind" condition="int">0</parameter>
<parameter name="samples" condition="real">5.1200000000e+04</parameter>
<parameter name="samplesperthread" condition="real">1.6000000000e+02</parameter>
<parameter name="steps" condition="int">2</parameter>
<parameter name="stepsbetweensamples" condition="int">1</parameter>
<parameter name="store_configs" condition="int">0</parameter>
<parameter name="storeconfigs" condition="int">0</parameter>
<parameter name="sub_steps" condition="int">20</parameter>
<parameter name="substeps" condition="int">20</parameter>
<parameter name="tau" condition="au">5.0000000000e-01</parameter>
<parameter name="time_step" condition="au">5.0000000000e-01</parameter>
<parameter name="timestep" condition="au">5.0000000000e-01</parameter>
<parameter name="use_drift" condition="string">yes</parameter>
<parameter name="usedrift" condition="string">yes</parameter>
<parameter name="walkers" condition="int">1</parameter>
<parameter name="warmup_steps" condition="int">25</parameter>
<parameter name="warmupsteps" condition="int">25</parameter>
  DumpConfig==false Nothing (configurations, state) will be saved.
  Walker Samples are dumped every 1 steps.
</vmc>
  EstimatorManager::add replace LocalEnergy estimator.
  EstimatorManager::add replace LocalEnergy estimator.
<optimization-report>
<vmc stage="main" blocks="100">
  Cannot make clones again. Use existing 1 clones
  Initial partition of walkers 0 1 
  Total Sample Size   =51200
  Walker distribution on root = 0 1 
====================================================
  SimpleFixedNodeBranch::finalize after a VMC block
    QMC counter        = 2
    time step          = 0.5
    reference energy   = -17.1997
    reference variance = 0.405807
====================================================
  Execution time = 2.0610225210e+00
</vmc>
<opt stage="setup">
  <log>
   Reading configurations from h5FileRoot jopt-h2o.s002
  QMCCostFunctionOMP is created with 1
   Loading configuration from MCWalkerConfiguration::SampleStack 
    number of walkers before load 1
  Using Nonlocal PP in Opt: NonLocalECP
    number of walkers after load: 160 
Using buffers for temporary storage in QMCCostFunction.

Memory usage: 
Linear method (approx matrix usage: 4*N^2): 1.0025280000e+00 MB
Deriv,HDerivRecord:      6.7968000000e-01 MB
Buffer memory cost:     MB/walker       MB/total 
Orbitals only:           5.1200000000e-04      8.1920000000e-02
Orbitals + dervs:        2.5600000000e-03      4.0960000000e-01
Inverse:                 2.5600000000e-04      4.0960000000e-02
Determinants:            6.2560000000e-03      1.0009600000e+00
  VMC Eavg = -1.3963870562e+01
  VMC Evar = 6.1621280559e+01
  Total weights = 5.1200000000e+04
  Execution time = 4.2081521700e-01
  </log>
</opt>
<opt stage="main" walkers="51200">
  <log>
Iteration: 1/1
od_largest 1.0290567765e+08
  stabilityBase -6.0000000000e+00
  stabilizerScale 2.0000000000e+00
  Using XS:-6.0000000000e+00 0 0
ERROR CostFunction-> Number of Effective Walkers is too small 1.4347043946e+00 NumWalkersEff/NumSamples 2.8021570207e-05
ERROR CostFunction-> Number of Effective Walkers is too small 1.1885244203e+02 NumWalkersEff/NumSamples 2.3213367584e-03
ERROR CostFunction-> Number of Effective Walkers is too small 1.0124363280e+00 NumWalkersEff/NumSamples 1.9774147031e-05
ERROR CostFunction-> Number of Effective Walkers is too small 1.0004101892e+00 NumWalkersEff/NumSamples 1.9539261508e-05
ERROR CostFunction-> Number of Effective Walkers is too small 1.0000139540e+00 NumWalkersEff/NumSamples 1.9531522539e-05
ERROR CostFunction-> Number of Effective Walkers is too small 1.0000004802e+00 NumWalkersEff/NumSamples 1.9531259379e-05
  Failed Step. Largest LM parameter change:6.8404054542e+01
ERROR   Using XS:-4.0000000000e+00 1 0
ERROR CostFunction-> Number of Effective Walkers is too small 1.4346454097e+00 NumWalkersEff/NumSamples 2.8020418158e-05
ERROR CostFunction-> Number of Effective Walkers is too small 1.1883578785e+02 NumWalkersEff/NumSamples 2.3210114814e-03
ERROR CostFunction-> Number of Effective Walkers is too small 1.0124334154e+00 NumWalkersEff/NumSamples 1.9774090145e-05
ERROR CostFunction-> Number of Effective Walkers is too small 1.0004100474e+00 NumWalkersEff/NumSamples 1.9539258738e-05
ERROR CostFunction-> Number of Effective Walkers is too small 1.0000139476e+00 NumWalkersEff/NumSamples 1.9531522414e-05
ERROR CostFunction-> Number of Effective Walkers is too small 1.0000004799e+00 NumWalkersEff/NumSamples 1.9531259374e-05
  Failed Step. Largest LM parameter change:6.8406421283e+01
ERROR   Using XS:-2.0000000000e+00 2 0
ERROR CostFunction-> Number of Effective Walkers is too small 1.4341720711e+00 NumWalkersEff/NumSamples 2.8011173263e-05
ERROR CostFunction-> Number of Effective Walkers is too small 1.1870210787e+02 NumWalkersEff/NumSamples 2.3184005443e-03
ERROR CostFunction-> Number of Effective Walkers is too small 1.0124100485e+00 NumWalkersEff/NumSamples 1.9773633759e-05
ERROR CostFunction-> Number of Effective Walkers is too small 1.0004089103e+00 NumWalkersEff/NumSamples 1.9539236528e-05
ERROR CostFunction-> Number of Effective Walkers is too small 1.0000138963e+00 NumWalkersEff/NumSamples 1.9531521412e-05
ERROR CostFunction-> Number of Effective Walkers is too small 1.0000004777e+00 NumWalkersEff/NumSamples 1.9531259331e-05
  Failed Step. Largest LM parameter change:6.8425429198e+01
ERROR   Using XS:0.0000000000e+00 3 0
ERROR CostFunction-> Number of Effective Walkers is too small 1.4256232845e+00 NumWalkersEff/NumSamples 2.7844204775e-05
ERROR CostFunction-> Number of Effective Walkers is too small 1.1627714997e+02 NumWalkersEff/NumSamples 2.2710380854e-03
ERROR CostFunction-> Number of Effective Walkers is too small 1.0119899052e+00 NumWalkersEff/NumSamples 1.9765427836e-05
ERROR CostFunction-> Number of Effective Walkers is too small 1.0003886373e+00 NumWalkersEff/NumSamples 1.9538840572e-05
ERROR CostFunction-> Number of Effective Walkers is too small 1.0000129899e+00 NumWalkersEff/NumSamples 1.9531503709e-05
ERROR CostFunction-> Number of Effective Walkers is too small 1.0000004392e+00 NumWalkersEff/NumSamples 1.9531258578e-05
  Failed Step. Largest LM parameter change:6.8773502445e+01
ERROR   Using XS:2.0000000000e+00 4 0
  Good Step. Largest LM parameter change:1.1413751051e+00
 OldCost: -1.6373988036e+01 NewCost: -1.6379986880e+01 Delta Cost:-5.9988435689e-03
      Current ene:     -1.7251735843e+01
      Current var:     1.8324343435e-01
      Current ene_urw:     -1.7249759137e+01
      Current var_urw: 1.8739219086e-01
Setting new Parameters
ERROR   Execution time = 7.1861814230e+00
  </log>
  <optVariables href="jopt-h2o.s002.opt.xml">
CSFcoeff_1 -3.0090236369e-02 3 1  ON 0
CSFcoeff_2 2.1942527365e-02 3 1  ON 1
CSFcoeff_3 -1.1329705601e-02 3 1  ON 2
CSFcoeff_4 1.6055298482e-02 3 1  ON 3
CSFcoeff_5 -1.3429456283e-02 3 1  ON 4
CSFcoeff_6 -2.2224323899e-02 3 1  ON 5
CSFcoeff_7 7.5521480323e-03 3 1  ON 6
CSFcoeff_8 -1.4156809146e-02 3 1  ON 7
CSFcoeff_9 8.1102126964e-03 3 1  ON 8
CSFcoeff_10 1.0775905268e-02 3 1  ON 9
CSFcoeff_11 1.5273123793e-02 3 1  ON 10
CSFcoeff_12 -1.1883857681e-02 3 1  ON 11
CSFcoeff_13 -4.7530929181e-03 3 1  ON 12
CSFcoeff_14 -1.8910135997e-02 3 1  ON 13
CSFcoeff_15 -1.6519047223e-02 3 1  ON 14
CSFcoeff_16 -5.4796871652e-03 3 1  ON 15
CSFcoeff_17 9.7017394574e-03 3 1  ON 16
CSFcoeff_18 -8.1054444273e-03 3 1  ON 17
CSFcoeff_19 -1.2448298426e-02 3 1  ON 18
CSFcoeff_20 -4.0221033470e-03 3 1  ON 19
CSFcoeff_21 -2.5275311003e-03 3 1  ON 20
CSFcoeff_22 8.9943971373e-04 3 1  ON 21
CSFcoeff_23 -3.9060680388e-03 3 1  ON 22
CSFcoeff_24 -2.8426119212e-03 3 1  ON 23
CSFcoeff_25 -1.6856363148e-02 3 1  ON 24
CSFcoeff_26 1.6121140331e-03 3 1  ON 25
CSFcoeff_27 6.3369817355e-03 3 1  ON 26
CSFcoeff_28 -3.3899936817e-03 3 1  ON 27
CSFcoeff_29 7.5141286560e-03 3 1  ON 28
CSFcoeff_30 -4.3461363031e-03 3 1  ON 29
CSFcoeff_31 -3.6539235317e-03 3 1  ON 30
CSFcoeff_32 -5.3403743475e-03 3 1  ON 31
CSFcoeff_33 -1.2342302110e-03 3 1  ON 32
uu_0 3.1536003877e-01 1 1  ON 33
uu_1 1.5779391968e-01 1 1  ON 34
uu_2 7.7804023522e-02 1 1  ON 35
uu_3 3.0901757492e-02 1 1  ON 36
uu_4 -1.1619858149e-03 1 1  ON 37
uu_5 -3.0903984614e-02 1 1  ON 38
uu_6 -4.9727871935e-02 1 1  ON 39
uu_7 -6.8807275237e-02 1 1  ON 40
uu_8 -7.2277571925e-02 1 1  ON 41
uu_9 -9.5643212953e-02 1 1  ON 42
ud_0 7.1758230573e-01 1 1  ON 43
ud_1 4.0290463864e-01 1 1  ON 44
ud_2 2.4612876703e-01 1 1  ON 45
ud_3 1.8367414482e-01 1 1  ON 46
ud_4 1.6648125289e-01 1 1  ON 47
ud_5 1.4790626849e-01 1 1  ON 48
ud_6 1.1643015032e-01 1 1  ON 49
ud_7 7.0271759094e-02 1 1  ON 50
ud_8 4.6522872593e-02 1 1  ON 51
ud_9 4.0849091614e-02 1 1  ON 52
eO_0 -2.9575640046e+00 1 1  ON 53
eO_1 -2.5679089697e+00 1 1  ON 54
eO_2 -1.7713404952e+00 1 1  ON 55
eO_3 -1.0038033262e+00 1 1  ON 56
eO_4 -3.9510063781e-01 1 1  ON 57
eO_5 -1.6811036589e-02 1 1  ON 58
eO_6 9.2325122172e-02 1 1  ON 59
eO_7 2.1361775890e-01 1 1  ON 60
eO_8 1.5187966310e-01 1 1  ON 61
eO_9 7.5267812877e-02 1 1  ON 62
eH_0 -3.8676331856e-01 1 1  ON 63
eH_1 -3.6775362430e-01 1 1  ON 64
eH_2 -3.5284511982e-01 1 1  ON 65
eH_3 -3.0574043638e-01 1 1  ON 66
eH_4 -2.6855436641e-01 1 1  ON 67
eH_5 -2.5744531114e-01 1 1  ON 68
eH_6 -2.6107219787e-01 1 1  ON 69
eH_7 -2.2762953452e-01 1 1  ON 70
eH_8 -2.2039717194e-01 1 1  ON 71
eH_9 -1.3134174800e-01 1 1  ON 72
uuO_0 7.3235784099e-06 1 1  ON 73
uuO_1 3.3270129722e-06 1 1  ON 74
uuO_2 -3.1525107215e-06 1 1  ON 75
uuO_3 -1.0122669644e-05 1 1  ON 76
uuO_4 -2.6815682870e-06 1 1  ON 77
uuO_5 6.6540681920e-06 1 1  ON 78
uuO_6 -2.7747596495e-06 1 1  ON 79
uuO_7 2.4512638786e-06 1 1  ON 80
uuO_8 6.5438826811e-06 1 1  ON 81
uuO_9 -5.7095861527e-06 1 1  ON 82
uuO_10 -9.0737227810e-06 1 1  ON 83
uuO_11 -2.2322228404e-06 1 1  ON 84
uuO_12 -2.1421210106e-06 1 1  ON 85
uuO_13 1.1532907839e-05 1 1  ON 86
uuO_14 1.7724130110e-06 1 1  ON 87
uuO_15 5.7869541759e-08 1 1  ON 88
uuO_16 1.7785650233e-05 1 1  ON 89
uuO_17 6.9709226849e-06 1 1  ON 90
uuO_18 1.6609395018e-06 1 1  ON 91
uuO_19 3.2620761698e-07 1 1  ON 92
uuO_20 -8.4927537434e-06 1 1  ON 93
uuO_21 -2.6623753361e-07 1 1  ON 94
uuO_22 1.6556765154e-08 1 1  ON 95
uuO_23 3.7307539624e-06 1 1  ON 96
uuO_24 -1.7478316397e-07 1 1  ON 97
uuO_25 1.3701602965e-08 1 1  ON 98
udO_0 3.6837435532e-06 1 1  ON 99
udO_1 1.4864017201e-05 1 1  ON 100
udO_2 1.1020905443e-05 1 1  ON 101
udO_3 -9.4606446697e-06 1 1  ON 102
udO_4 -3.6521315814e-06 1 1  ON 103
udO_5 4.5898283707e-06 1 1  ON 104
udO_6 2.3273635190e-05 1 1  ON 105
udO_7 5.7272874065e-07 1 1  ON 106
udO_8 1.3745109476e-05 1 1  ON 107
udO_9 -1.5514844743e-05 1 1  ON 108
udO_10 -5.8024568608e-06 1 1  ON 109
udO_11 -1.0551759094e-05 1 1  ON 110
udO_12 -4.0942779241e-06 1 1  ON 111
udO_13 4.8603440963e-06 1 1  ON 112
udO_14 2.9732019376e-06 1 1  ON 113
udO_15 1.0504380747e-07 1 1  ON 114
udO_16 3.3319189727e-05 1 1  ON 115
udO_17 -3.0703608604e-06 1 1  ON 116
udO_18 7.2995866864e-06 1 1  ON 117
udO_19 1.4474795501e-06 1 1  ON 118
udO_20 -8.7961750661e-06 1 1  ON 119
udO_21 -1.0275108374e-06 1 1  ON 120
udO_22 -8.6037989866e-08 1 1  ON 121
udO_23 4.1319804060e-06 1 1  ON 122
udO_24 -2.3159676341e-07 1 1  ON 123
udO_25 4.4330632612e-08 1 1  ON 124
uuH_0 4.5476767787e-06 1 1  ON 125
uuH_1 1.9770856218e-05 1 1  ON 126
uuH_2 3.8551646421e-06 1 1  ON 127
uuH_3 -6.2260914780e-06 1 1  ON 128
uuH_4 -1.1314315820e-06 1 1  ON 129
uuH_5 -1.4976164891e-06 1 1  ON 130
uuH_6 3.1579969953e-05 1 1  ON 131
uuH_7 -1.9793990546e-05 1 1  ON 132
uuH_8 -2.7808260563e-07 1 1  ON 133
uuH_9 -2.5617894256e-05 1 1  ON 134
uuH_10 -3.9037859718e-06 1 1  ON 135
uuH_11 4.1617363043e-06 1 1  ON 136
uuH_12 2.1898440249e-07 1 1  ON 137
uuH_13 8.8716361493e-06 1 1  ON 138
uuH_14 -1.8326062325e-06 1 1  ON 139
uuH_15 1.6500756326e-07 1 1  ON 140
uuH_16 3.6446588432e-05 1 1  ON 141
uuH_17 -4.8310819585e-06 1 1  ON 142
uuH_18 2.1362038656e-07 1 1  ON 143
uuH_19 -1.3967717277e-07 1 1  ON 144
uuH_20 -1.0639431293e-05 1 1  ON 145
uuH_21 9.4118071108e-07 1 1  ON 146
uuH_22 -1.3101509446e-07 1 1  ON 147
uuH_23 3.1092508156e-06 1 1  ON 148
uuH_24 -4.1656065875e-07 1 1  ON 149
uuH_25 6.4955351064e-08 1 1  ON 150
udH_0 -2.2931306321e-07 1 1  ON 151
udH_1 -1.6545981880e-05 1 1  ON 152
udH_2 -3.4146209373e-06 1 1  ON 153
udH_3 2.4733827265e-06 1 1  ON 154
udH_4 1.4897624685e-08 1 1  ON 155
udH_5 1.0651727853e-06 1 1  ON 156
udH_6 -2.1646498961e-05 1 1  ON 157
udH_7 4.5901829896e-06 1 1  ON 158
udH_8 -1.4943256948e-06 1 1  ON 159
udH_9 1.5367636816e-05 1 1  ON 160
udH_10 1.3333462078e-06 1 1  ON 161
udH_11 -9.2197132954e-07 1 1  ON 162
udH_12 -6.5113737845e-08 1 1  ON 163
udH_13 -2.9867880305e-06 1 1  ON 164
udH_14 1.6150995374e-07 1 1  ON 165
udH_15 9.1249543076e-09 1 1  ON 166
udH_16 -7.9253799383e-06 1 1  ON 167
udH_17 -1.9010461632e-06 1 1  ON 168
udH_18 1.5703497058e-06 1 1  ON 169
udH_19 1.1635909186e-07 1 1  ON 170
udH_20 1.1156511229e-06 1 1  ON 171
udH_21 -3.2136141940e-07 1 1  ON 172
udH_22 -4.6516103550e-09 1 1  ON 173
udH_23 3.0211030560e-08 1 1  ON 174
udH_24 4.8164446633e-08 1 1  ON 175
udH_25 1.7150182851e-09 1 1  ON 176
  </optVariables>
   Restore the number of walkers to 1, removing 159 walkers.
</opt>
</optimization-report>
  QMC Execution time = 7.1984307800e+00 secs 
  Reusing QMCFixedSampleLinearOptimize
 Using QMCCostFunctionOMP::QMCCostFunctionOMP

=========================================================
  Start QMCFixedSampleLinearOptimize
  File Root jopt-h2o.s003 append = no 
=========================================================
  Skip QMCDriver::putQMCInfo 
  Resetting Properties of the walkers 1 x 14

=========================================================
  Start VMCSingleOMP
  File Root jopt-h2o.s003 append = no 
=========================================================
Using existing walkers 
  Resetting Properties of the walkers 1 x 14

<vmc function="put">
  qmc_counter=3  my_counter=3
  time step      = 5.0000000000e-01
  blocks         = 100
  steps          = 2
  substeps       = 20
  current        = 0
  target samples = 5.1200000000e+04
  walkers/mpi    = 1

  stepsbetweensamples = 1
<parameter name="blocks" condition="int">100</parameter>
<parameter name="check_properties" condition="int">100</parameter>
<parameter name="checkproperties" condition="int">100</parameter>
<parameter name="current" condition="int">0</parameter>
<parameter name="dmcwalkersperthread" condition="real">1.6000000000e+02</parameter>
<parameter name="maxcpusecs" condition="real">3.6000000000e+05</parameter>
<parameter name="record_configs" condition="int">0</parameter>
<parameter name="record_walkers" condition="int">1</parameter>
<parameter name="recordconfigs" condition="int">0</parameter>
<parameter name="recordwalkers" condition="int">1</parameter>
<parameter name="rewind" condition="int">0</parameter>
<parameter name="samples" condition="real">5.1200000000e+04</parameter>
<parameter name="samplesperthread" condition="real">1.6000000000e+02</parameter>
<parameter name="steps" condition="int">2</parameter>
<parameter name="stepsbetweensamples" condition="int">1</parameter>
<parameter name="store_configs" condition="int">0</parameter>
<parameter name="storeconfigs" condition="int">0</parameter>
<parameter name="sub_steps" condition="int">20</parameter>
<parameter name="substeps" condition="int">20</parameter>
<parameter name="tau" condition="au">5.0000000000e-01</parameter>
<parameter name="time_step" condition="au">5.0000000000e-01</parameter>
<parameter name="timestep" condition="au">5.0000000000e-01</parameter>
<parameter name="use_drift" condition="string">yes</parameter>
<parameter name="usedrift" condition="string">yes</parameter>
<parameter name="walkers" condition="int">1</parameter>
<parameter name="warmup_steps" condition="int">25</parameter>
<parameter name="warmupsteps" condition="int">25</parameter>
  DumpConfig==false Nothing (configurations, state) will be saved.
  Walker Samples are dumped every 1 steps.
</vmc>
  EstimatorManager::add replace LocalEnergy estimator.
  EstimatorManager::add replace LocalEnergy estimator.
<optimization-report>
<vmc stage="main" blocks="100">
  Cannot make clones again. Use existing 1 clones
  Initial partition of walkers 0 1 
  Total Sample Size   =51200
  Walker distribution on root = 0 1 
====================================================
  SimpleFixedNodeBranch::finalize after a VMC block
    QMC counter        = 3
    time step          = 0.5
    reference energy   = -17.2855
    reference variance = 0.402441
====================================================
  Execution time = 2.0849230300e+00
</vmc>
<opt stage="setup">
  <log>
   Reading configurations from h5FileRoot jopt-h2o.s003
  QMCCostFunctionOMP is created with 1
   Loading configuration from MCWalkerConfiguration::SampleStack 
    number of walkers before load 1
  Using Nonlocal PP in Opt: NonLocalECP
    number of walkers after load: 160 
Using buffers for temporary storage in QMCCostFunction.

Memory usage: 
Linear method (approx matrix usage: 4*N^2): 1.0025280000e+00 MB
Deriv,HDerivRecord:      6.7968000000e-01 MB
Buffer memory cost:     MB/walker       MB/total 
Orbitals only:           5.1200000000e-04      8.1920000000e-02
Orbitals + dervs:        2.5600000000e-03      4.0960000000e-01
Inverse:                 2.5600000000e-04      4.0960000000e-02
Determinants:            6.2560000000e-03      1.0009600000e+00
  VMC Eavg = -1.0567704761e+01
  VMC Evar = 3.0090886407e+02
  Total weights = 5.1200000000e+04
  Execution time = 4.2112736500e-01
  </log>
</opt>
<opt stage="main" walkers="51200">
  <log>
Iteration: 1/1
od_largest 3.1106372288e+08
  stabilityBase -6.0000000000e+00
  stabilizerScale 2.0000000000e+00
  Using XS:-6.0000000000e+00 0 0
ERROR CostFunction-> Number of Effective Walkers is too small 1.0703258576e+00 NumWalkersEff/NumSamples 2.0904801907e-05
ERROR CostFunction-> Number of Effective Walkers is too small 1.0004730642e+00 NumWalkersEff/NumSamples 1.9540489535e-05
ERROR CostFunction-> Number of Effective Walkers is too small 1.0000000000e+00 NumWalkersEff/NumSamples 1.9531250001e-05
ERROR CostFunction-> Number of Effective Walkers is too small 1.0000000000e+00 NumWalkersEff/NumSamples 1.9531250000e-05
ERROR CostFunction-> Number of Effective Walkers is too small 1.0000000000e+00 NumWalkersEff/NumSamples 1.9531250000e-05
ERROR CostFunction-> Number of Effective Walkers is too small 1.0000000000e+00 NumWalkersEff/NumSamples 1.9531250000e-05
  Failed Step. Largest LM parameter change:6.5404391636e+02
ERROR   Using XS:-4.0000000000e+00 1 0
ERROR CostFunction-> Number of Effective Walkers is too small 1.0705046072e+00 NumWalkersEff/NumSamples 2.0908293110e-05
ERROR CostFunction-> Number of Effective Walkers is too small 1.0004705228e+00 NumWalkersEff/NumSamples 1.9540439899e-05
ERROR CostFunction-> Number of Effective Walkers is too small 1.0000000000e+00 NumWalkersEff/NumSamples 1.9531250000e-05
ERROR CostFunction-> Number of Effective Walkers is too small 1.0000000000e+00 NumWalkersEff/NumSamples 1.9531250000e-05
ERROR CostFunction-> Number of Effective Walkers is too small 1.0000000000e+00 NumWalkersEff/NumSamples 1.9531250000e-05
ERROR CostFunction-> Number of Effective Walkers is too small 1.0000000000e+00 NumWalkersEff/NumSamples 1.9531250000e-05
  Failed Step. Largest LM parameter change:6.5421733119e+02
ERROR   Using XS:-2.0000000000e+00 2 0
ERROR CostFunction-> Number of Effective Walkers is too small 1.0722745526e+00 NumWalkersEff/NumSamples 2.0942862356e-05
ERROR CostFunction-> Number of Effective Walkers is too small 1.0004460645e+00 NumWalkersEff/NumSamples 1.9539962198e-05
ERROR CostFunction-> Number of Effective Walkers is too small 1.0000000000e+00 NumWalkersEff/NumSamples 1.9531250000e-05
ERROR CostFunction-> Number of Effective Walkers is too small 1.0000000000e+00 NumWalkersEff/NumSamples 1.9531250000e-05
ERROR CostFunction-> Number of Effective Walkers is too small 1.0000000000e+00 NumWalkersEff/NumSamples 1.9531250000e-05
ERROR CostFunction-> Number of Effective Walkers is too small 1.0000000000e+00 NumWalkersEff/NumSamples 1.9531250000e-05
  Failed Step. Largest LM parameter change:6.5593645157e+02
ERROR   Using XS:0.0000000000e+00 3 0
  Good Step. Largest LM parameter change:8.7679368597e+00
 OldCost: -1.6383055425e+01 NewCost: -1.6384266633e+01 Delta Cost:-1.2112079369e-03
      Current ene:     -1.7256685580e+01
      Current var:     1.9169334688e-01
      Current ene_urw:     -1.7256114228e+01
      Current var_urw: 1.9022343886e-01
Setting new Parameters
ERROR   Execution time = 6.4260836030e+00
  </log>
  <optVariables href="jopt-h2o.s003.opt.xml">
CSFcoeff_1 -2.2880629752e-02 3 1  ON 0
CSFcoeff_2 2.0466515252e-02 3 1  ON 1
CSFcoeff_3 -6.3119265021e-03 3 1  ON 2
CSFcoeff_4 1.1511606010e-02 3 1  ON 3
CSFcoeff_5 -1.1762785520e-02 3 1  ON 4
CSFcoeff_6 -1.9217140739e-02 3 1  ON 5
CSFcoeff_7 1.7434708433e-03 3 1  ON 6
CSFcoeff_8 -8.2957581553e-03 3 1  ON 7
CSFcoeff_9 1.0991341723e-02 3 1  ON 8
CSFcoeff_10 6.2023641571e-03 3 1  ON 9
CSFcoeff_11 8.2782672461e-03 3 1  ON 10
CSFcoeff_12 -1.0682846549e-02 3 1  ON 11
CSFcoeff_13 -8.5079621061e-03 3 1  ON 12
CSFcoeff_14 -1.6436485176e-02 3 1  ON 13
CSFcoeff_15 -1.8216606282e-02 3 1  ON 14
CSFcoeff_16 -2.9714846135e-03 3 1  ON 15
CSFcoeff_17 9.6415729367e-03 3 1  ON 16
CSFcoeff_18 -4.7422481881e-03 3 1  ON 17
CSFcoeff_19 -1.2205578206e-02 3 1  ON 18
CSFcoeff_20 -2.4346571649e-03 3 1  ON 19
CSFcoeff_21 -1.8578577053e-03 3 1  ON 20
CSFcoeff_22 8.0322457678e-04 3 1  ON 21
CSFcoeff_23 -2.3678490763e-03 3 1  ON 22
CSFcoeff_24 -1.1611135499e-03 3 1  ON 23
CSFcoeff_25 -1.7454184855e-02 3 1  ON 24
CSFcoeff_26 1.4443720306e-03 3 1  ON 25
CSFcoeff_27 5.0696723738e-03 3 1  ON 26
CSFcoeff_28 -4.1157076138e-03 3 1  ON 27
CSFcoeff_29 7.1327677528e-03 3 1  ON 28
CSFcoeff_30 1.7692015774e-03 3 1  ON 29
CSFcoeff_31 -3.3151070050e-03 3 1  ON 30
CSFcoeff_32 -9.0220884419e-03 3 1  ON 31
CSFcoeff_33 -1.2720147433e-03 3 1  ON 32
uu_0 4.5541175659e-01 1 1  ON 33
uu_1 3.0799399695e-01 1 1  ON 34
uu_2 2.3155988594e-01 1 1  ON 35
uu_3 1.8607726163e-01 1 1  ON 36
uu_4 1.4962184426e-01 1 1  ON 37
uu_5 1.1253181512e-01 1 1  ON 38
uu_6 8.4956711731e-02 1 1  ON 39
uu_7 6.3141967498e-02 1 1  ON 40
uu_8 6.6715780736e-02 1 1  ON 41
uu_9 -2.6536238365e-02 1 1  ON 42
ud_0 8.3818119830e-01 1 1  ON 43
ud_1 5.2378452913e-01 1 1  ON 44
ud_2 3.5893255028e-01 1 1  ON 45
ud_3 2.8836908514e-01 1 1  ON 46
ud_4 2.6259015652e-01 1 1  ON 47
ud_5 2.4091189293e-01 1 1  ON 48
ud_6 2.1090170602e-01 1 1  ON 49
ud_7 1.6170141069e-01 1 1  ON 50
ud_8 1.3651162637e-01 1 1  ON 51
ud_9 1.7638384379e-01 1 1  ON 52
eO_0 -1.1725500864e+01 1 1  ON 53
eO_1 -1.1315200625e+01 1 1  ON 54
eO_2 -1.0398398625e+01 1 1  ON 55
eO_3 -9.4206044651e+00 1 1  ON 56
eO_4 -8.6117362747e+00 1 1  ON 57
eO_5 -8.0980806781e+00 1 1  ON 58
eO_6 -7.9929664840e+00 1 1  ON 59
eO_7 -7.8380792843e+00 1 1  ON 60
eO_8 -7.8942849192e+00 1 1  ON 61
eO_9 -7.3822051240e+00 1 1  ON 62
eH_0 -5.6063004479e-01 1 1  ON 63
eH_1 -5.3840067688e-01 1 1  ON 64
eH_2 -5.2214267665e-01 1 1  ON 65
eH_3 -4.6870277479e-01 1 1  ON 66
eH_4 -4.2654702726e-01 1 1  ON 67
eH_5 -4.0160778594e-01 1 1  ON 68
eH_6 -4.0766594393e-01 1 1  ON 69
eH_7 -3.8297760839e-01 1 1  ON 70
eH_8 -3.2843909679e-01 1 1  ON 71
eH_9 -3.3706415832e-01 1 1  ON 72
uuO_0 7.9619925223e-06 1 1  ON 73
uuO_1 3.2493141637e-06 1 1  ON 74
uuO_2 -5.2061099507e-06 1 1  ON 75
uuO_3 -8.8405075921e-06 1 1  ON 76
uuO_4 -2.0848976943e-06 1 1  ON 77
uuO_5 8.7994246655e-06 1 1  ON 78
uuO_6 -4.3036898659e-06 1 1  ON 79
uuO_7 -1.4999580435e-06 1 1  ON 80
uuO_8 3.3383012947e-06 1 1  ON 81
uuO_9 -3.7297013197e-06 1 1  ON 82
uuO_10 -8.4238858634e-06 1 1  ON 83
uuO_11 6.9149103775e-07 1 1  ON 84
uuO_12 -1.7231005292e-06 1 1  ON 85
uuO_13 1.0154909643e-05 1 1  ON 86
uuO_14 1.0913545598e-06 1 1  ON 87
uuO_15 9.4092882458e-08 1 1  ON 88
uuO_16 1.7975647433e-05 1 1  ON 89
uuO_17 4.8770423412e-06 1 1  ON 90
uuO_18 7.5663618526e-07 1 1  ON 91
uuO_19 5.2746970883e-07 1 1  ON 92
uuO_20 -7.8604898921e-06 1 1  ON 93
uuO_21 -1.9507238471e-07 1 1  ON 94
uuO_22 -2.5585905838e-08 1 1  ON 95
uuO_23 3.8349880380e-06 1 1  ON 96
uuO_24 -1.8291339485e-07 1 1  ON 97
uuO_25 2.0906884985e-08 1 1  ON 98
udO_0 2.1916047224e-06 1 1  ON 99
udO_1 1.7228061921e-05 1 1  ON 100
udO_2 1.5105301268e-05 1 1  ON 101
udO_3 -8.4717253327e-06 1 1  ON 102
udO_4 -4.0309677080e-06 1 1  ON 103
udO_5 6.7444292520e-06 1 1  ON 104
udO_6 2.8077005162e-05 1 1  ON 105
udO_7 -2.8900063805e-07 1 1  ON 106
udO_8 1.5411444234e-05 1 1  ON 107
udO_9 -1.7058411828e-05 1 1  ON 108
udO_10 -4.4834690283e-06 1 1  ON 109
udO_11 -1.2679859303e-05 1 1  ON 110
udO_12 -4.5566042864e-06 1 1  ON 111
udO_13 2.8919132070e-06 1 1  ON 112
udO_14 2.9020863291e-06 1 1  ON 113
udO_15 1.7475686612e-07 1 1  ON 114
udO_16 3.6730845292e-05 1 1  ON 115
udO_17 -6.9775380409e-06 1 1  ON 116
udO_18 9.2720102941e-06 1 1  ON 117
udO_19 1.6554688816e-06 1 1  ON 118
udO_20 -8.1447518114e-06 1 1  ON 119
udO_21 -1.2717598001e-06 1 1  ON 120
udO_22 -1.0425924002e-07 1 1  ON 121
udO_23 3.9060099445e-06 1 1  ON 122
udO_24 -1.7331780718e-07 1 1  ON 123
udO_25 3.7158957931e-08 1 1  ON 124
uuH_0 4.6418006847e-06 1 1  ON 125
uuH_1 1.9983869956e-05 1 1  ON 126
uuH_2 4.9607449337e-06 1 1  ON 127
uuH_3 -5.3079708573e-06 1 1  ON 128
uuH_4 -1.0388068325e-06 1 1  ON 129
uuH_5 -1.2551293002e-06 1 1  ON 130
uuH_6 3.0754033594e-05 1 1  ON 131
uuH_7 -1.8296084076e-05 1 1  ON 132
uuH_8 1.6342519494e-06 1 1  ON 133
uuH_9 -2.5327655947e-05 1 1  ON 134
uuH_10 -2.6279677470e-06 1 1  ON 135
uuH_11 8.9207607970e-07 1 1  ON 136
uuH_12 -1.5668501641e-07 1 1  ON 137
uuH_13 7.7419191008e-06 1 1  ON 138
uuH_14 -1.3613580749e-06 1 1  ON 139
uuH_15 1.6063711241e-07 1 1  ON 140
uuH_16 3.6388395333e-05 1 1  ON 141
uuH_17 -6.5271102595e-06 1 1  ON 142
uuH_18 3.2682955018e-06 1 1  ON 143
uuH_19 -2.7421123022e-07 1 1  ON 144
uuH_20 -1.0083296208e-05 1 1  ON 145
uuH_21 3.4083545931e-07 1 1  ON 146
uuH_22 -5.3507002578e-08 1 1  ON 147
uuH_23 2.9785434737e-06 1 1  ON 148
uuH_24 -2.8383986497e-07 1 1  ON 149
uuH_25 4.0594471143e-08 1 1  ON 150
udH_0 -1.1065940976e-06 1 1  ON 151
udH_1 -1.5057803531e-05 1 1  ON 152
udH_2 5.1400655532e-08 1 1  ON 153
udH_3 2.1057466848e-06 1 1  ON 154
udH_4 -3.1203024468e-07 1 1  ON 155
udH_5 1.1761721806e-06 1 1  ON 156
udH_6 -1.5260074480e-05 1 1  ON 157
udH_7 2.6367574745e-06 1 1  ON 158
udH_8 1.4336467335e-06 1 1  ON 159
udH_9 1.0477818837e-05 1 1  ON 160
udH_10 1.3882608125e-06 1 1  ON 161
udH_11 -2.9370155957e-06 1 1  ON 162
udH_12 -4.3819889320e-07 1 1  ON 163
udH_13 -7.0291471317e-07 1 1  ON 164
udH_14 3.0405383497e-07 1 1  ON 165
udH_15 3.2630816241e-08 1 1  ON 166
udH_16 -1.6236712149e-06 1 1  ON 167
udH_17 -1.8969702620e-06 1 1  ON 168
udH_18 2.5685094220e-06 1 1  ON 169
udH_19 6.7880524026e-08 1 1  ON 170
udH_20 -1.2956132665e-06 1 1  ON 171
udH_21 -2.0985128892e-07 1 1  ON 172
udH_22 -2.3555749370e-08 1 1  ON 173
udH_23 7.6253832607e-07 1 1  ON 174
udH_24 -4.2783701501e-08 1 1  ON 175
udH_25 1.6282963548e-08 1 1  ON 176
  </optVariables>
   Restore the number of walkers to 1, removing 159 walkers.
</opt>
</optimization-report>
  QMC Execution time = 6.4438488010e+00 secs 
  Reusing QMCFixedSampleLinearOptimize
 Using QMCCostFunctionOMP::QMCCostFunctionOMP

=========================================================
  Start QMCFixedSampleLinearOptimize
  File Root jopt-h2o.s004 append = no 
=========================================================
  Skip QMCDriver::putQMCInfo 
  Resetting Properties of the walkers 1 x 14

=========================================================
  Start VMCSingleOMP
  File Root jopt-h2o.s004 append = no 
=========================================================
Using existing walkers 
  Resetting Properties of the walkers 1 x 14

<vmc function="put">
  qmc_counter=4  my_counter=4
  time step      = 5.0000000000e-01
  blocks         = 100
  steps          = 2
  substeps       = 20
  current        = 0
  target samples = 5.1200000000e+04
  walkers/mpi    = 1

  stepsbetweensamples = 1
<parameter name="blocks" condition="int">100</parameter>
<parameter name="check_properties" condition="int">100</parameter>
<parameter name="checkproperties" condition="int">100</parameter>
<parameter name="current" condition="int">0</parameter>
<parameter name="dmcwalkersperthread" condition="real">1.6000000000e+02</parameter>
<parameter name="maxcpusecs" condition="real">3.6000000000e+05</parameter>
<parameter name="record_configs" condition="int">0</parameter>
<parameter name="record_walkers" condition="int">1</parameter>
<parameter name="recordconfigs" condition="int">0</parameter>
<parameter name="recordwalkers" condition="int">1</parameter>
<parameter name="rewind" condition="int">0</parameter>
<parameter name="samples" condition="real">5.1200000000e+04</parameter>
<parameter name="samplesperthread" condition="real">1.6000000000e+02</parameter>
<parameter name="steps" condition="int">2</parameter>
<parameter name="stepsbetweensamples" condition="int">1</parameter>
<parameter name="store_configs" condition="int">0</parameter>
<parameter name="storeconfigs" condition="int">0</parameter>
<parameter name="sub_steps" condition="int">20</parameter>
<parameter name="substeps" condition="int">20</parameter>
<parameter name="tau" condition="au">5.0000000000e-01</parameter>
<parameter name="time_step" condition="au">5.0000000000e-01</parameter>
<parameter name="timestep" condition="au">5.0000000000e-01</parameter>
<parameter name="use_drift" condition="string">yes</parameter>
<parameter name="usedrift" condition="string">yes</parameter>
<parameter name="walkers" condition="int">1</parameter>
<parameter name="warmup_steps" condition="int">25</parameter>
<parameter name="warmupsteps" condition="int">25</parameter>
  DumpConfig==false Nothing (configurations, state) will be saved.
  Walker Samples are dumped every 1 steps.
</vmc>
  EstimatorManager::add replace LocalEnergy estimator.
  EstimatorManager::add replace LocalEnergy estimator.
<optimization-report>
<vmc stage="main" blocks="100">
  Cannot make clones again. Use existing 1 clones
  Initial partition of walkers 0 1 
  Total Sample Size   =51200
  Walker distribution on root = 0 1 
====================================================
  SimpleFixedNodeBranch::finalize after a VMC block
    QMC counter        = 4
    time step          = 0.5
    reference energy   = -17.2501
    reference variance = 0.459021
====================================================
  Execution time = 2.0453050410e+00
</vmc>
<opt stage="setup">
  <log>
   Reading configurations from h5FileRoot jopt-h2o.s004
  QMCCostFunctionOMP is created with 1
   Loading configuration from MCWalkerConfiguration::SampleStack 
    number of walkers before load 1
  Using Nonlocal PP in Opt: NonLocalECP
    number of walkers after load: 160 
Using buffers for temporary storage in QMCCostFunction.

Memory usage: 
Linear method (approx matrix usage: 4*N^2): 1.0025280000e+00 MB
[...]
uuO_4 -2.0009604831e-06 1 1  ON 77
uuO_5 9.2614048453e-06 1 1  ON 78
uuO_6 -5.4791233916e-06 1 1  ON 79
uuO_7 -2.5199181091e-07 1 1  ON 80
uuO_8 1.6913552975e-06 1 1  ON 81
uuO_9 -2.8883803061e-06 1 1  ON 82
uuO_10 -8.4253813494e-06 1 1  ON 83
uuO_11 1.4740314307e-06 1 1  ON 84
uuO_12 -1.2261810256e-06 1 1  ON 85
uuO_13 9.1284347673e-06 1 1  ON 86
uuO_14 6.4689709294e-07 1 1  ON 87
uuO_15 9.1667460418e-08 1 1  ON 88
uuO_16 1.7172125975e-05 1 1  ON 89
uuO_17 3.7238493729e-06 1 1  ON 90
uuO_18 3.4649283618e-07 1 1  ON 91
uuO_19 4.3967555740e-07 1 1  ON 92
uuO_20 -7.1015141921e-06 1 1  ON 93
uuO_21 -8.8749285273e-08 1 1  ON 94
uuO_22 -4.2595831381e-08 1 1  ON 95
uuO_23 3.6630975678e-06 1 1  ON 96
uuO_24 -1.9931502009e-07 1 1  ON 97
uuO_25 2.8199005633e-08 1 1  ON 98
udO_0 1.0865572863e-06 1 1  ON 99
udO_1 1.6738173962e-05 1 1  ON 100
udO_2 1.4926504967e-05 1 1  ON 101
udO_3 -7.1824306458e-06 1 1  ON 102
udO_4 -3.1855997684e-06 1 1  ON 103
udO_5 6.8190678278e-06 1 1  ON 104
udO_6 2.6745487530e-05 1 1  ON 105
udO_7 -1.6154632077e-09 1 1  ON 106
udO_8 1.3566015172e-05 1 1  ON 107
udO_9 -1.4045749208e-05 1 1  ON 108
udO_10 -2.9286109505e-06 1 1  ON 109
udO_11 -1.2741161737e-05 1 1  ON 110
udO_12 -3.5268542904e-06 1 1  ON 111
udO_13 -4.4423727789e-07 1 1  ON 112
udO_14 1.9630337340e-06 1 1  ON 113
udO_15 1.6545733880e-07 1 1  ON 114
udO_16 3.2170045080e-05 1 1  ON 115
udO_17 -1.0422883516e-05 1 1  ON 116
udO_18 1.0407304773e-05 1 1  ON 117
udO_19 9.0777526513e-07 1 1  ON 118
udO_20 -5.1576414956e-06 1 1  ON 119
udO_21 -1.2513605376e-06 1 1  ON 120
udO_22 -2.7087665092e-08 1 1  ON 121
udO_23 2.7898738414e-06 1 1  ON 122
udO_24 -1.3154185863e-07 1 1  ON 123
udO_25 2.1797353365e-08 1 1  ON 124
uuH_0 3.8199835985e-06 1 1  ON 125
uuH_1 1.1375641227e-05 1 1  ON 126
uuH_2 2.8640306403e-06 1 1  ON 127
uuH_3 -2.3847472214e-06 1 1  ON 128
uuH_4 -1.5529331586e-07 1 1  ON 129
uuH_5 -6.2669237081e-07 1 1  ON 130
uuH_6 1.6108079063e-05 1 1  ON 131
uuH_7 -8.1759449821e-06 1 1  ON 132
uuH_8 1.7641947654e-07 1 1  ON 133
uuH_9 -1.6531846856e-05 1 1  ON 134
uuH_10 1.2812091282e-08 1 1  ON 135
uuH_11 -1.8836554753e-06 1 1  ON 136
uuH_12 6.9493888799e-07 1 1  ON 137
uuH_13 5.0143276416e-06 1 1  ON 138
uuH_14 -1.1823873632e-06 1 1  ON 139
uuH_15 5.9675093550e-08 1 1  ON 140
uuH_16 2.6396994120e-05 1 1  ON 141
uuH_17 -6.7552594807e-06 1 1  ON 142
uuH_18 4.4031079890e-06 1 1  ON 143
uuH_19 -8.0491502144e-07 1 1  ON 144
uuH_20 -7.7566546388e-06 1 1  ON 145
uuH_21 1.4948140738e-07 1 1  ON 146
uuH_22 2.5104660872e-08 1 1  ON 147
uuH_23 2.4375662619e-06 1 1  ON 148
uuH_24 -2.3522791816e-07 1 1  ON 149
uuH_25 2.7363225612e-08 1 1  ON 150
udH_0 -1.1335509877e-06 1 1  ON 151
udH_1 -1.5336490401e-05 1 1  ON 152
udH_2 5.8521019547e-07 1 1  ON 153
udH_3 2.8678441414e-06 1 1  ON 154
udH_4 -3.8152584288e-07 1 1  ON 155
udH_5 1.1928175805e-06 1 1  ON 156
udH_6 -1.2766917296e-05 1 1  ON 157
udH_7 -6.4758795908e-07 1 1  ON 158
udH_8 2.1613233406e-07 1 1  ON 159
udH_9 8.9914902856e-06 1 1  ON 160
udH_10 1.4688822663e-06 1 1  ON 161
udH_11 -1.9706718472e-06 1 1  ON 162
udH_12 -1.0132234047e-07 1 1  ON 163
udH_13 -2.1330690911e-06 1 1  ON 164
udH_14 -6.2986211641e-07 1 1  ON 165
udH_15 1.0460962790e-07 1 1  ON 166
udH_16 4.0883584027e-06 1 1  ON 167
udH_17 -5.9164130670e-06 1 1  ON 168
udH_18 3.3710777688e-06 1 1  ON 169
udH_19 -1.0422134096e-07 1 1  ON 170
udH_20 -1.8564236972e-06 1 1  ON 171
udH_21 -5.0668144137e-08 1 1  ON 172
udH_22 -4.7977103294e-08 1 1  ON 173
udH_23 9.0534807572e-07 1 1  ON 174
udH_24 -7.0483638098e-08 1 1  ON 175
udH_25 2.2770469513e-08 1 1  ON 176
  </optVariables>
   Restore the number of walkers to 1, removing 159 walkers.
</opt>
</optimization-report>
  QMC Execution time = 9.7423662040e+00 secs 
  Reusing QMCFixedSampleLinearOptimize
 Using QMCCostFunctionOMP::QMCCostFunctionOMP

=========================================================
  Start QMCFixedSampleLinearOptimize
  File Root jopt-h2o.s009 append = no 
=========================================================
  Skip QMCDriver::putQMCInfo 
  Resetting Properties of the walkers 1 x 14

=========================================================
  Start VMCSingleOMP
  File Root jopt-h2o.s009 append = no 
=========================================================
Using existing walkers 
  Resetting Properties of the walkers 1 x 14

<vmc function="put">
  qmc_counter=9  my_counter=9
  time step      = 5.0000000000e-01
  blocks         = 100
  steps          = 2
  substeps       = 20
  current        = 0
  target samples = 5.1200000000e+04
  walkers/mpi    = 1

  stepsbetweensamples = 1
<parameter name="blocks" condition="int">100</parameter>
<parameter name="check_properties" condition="int">100</parameter>
<parameter name="checkproperties" condition="int">100</parameter>
<parameter name="current" condition="int">0</parameter>
<parameter name="dmcwalkersperthread" condition="real">1.6000000000e+02</parameter>
<parameter name="maxcpusecs" condition="real">3.6000000000e+05</parameter>
<parameter name="record_configs" condition="int">0</parameter>
<parameter name="record_walkers" condition="int">1</parameter>
<parameter name="recordconfigs" condition="int">0</parameter>
<parameter name="recordwalkers" condition="int">1</parameter>
<parameter name="rewind" condition="int">0</parameter>
<parameter name="samples" condition="real">5.1200000000e+04</parameter>
<parameter name="samplesperthread" condition="real">1.6000000000e+02</parameter>
<parameter name="steps" condition="int">2</parameter>
<parameter name="stepsbetweensamples" condition="int">1</parameter>
<parameter name="store_configs" condition="int">0</parameter>
<parameter name="storeconfigs" condition="int">0</parameter>
<parameter name="sub_steps" condition="int">20</parameter>
<parameter name="substeps" condition="int">20</parameter>
<parameter name="tau" condition="au">5.0000000000e-01</parameter>
<parameter name="time_step" condition="au">5.0000000000e-01</parameter>
<parameter name="timestep" condition="au">5.0000000000e-01</parameter>
<parameter name="use_drift" condition="string">yes</parameter>
<parameter name="usedrift" condition="string">yes</parameter>
<parameter name="walkers" condition="int">1</parameter>
<parameter name="warmup_steps" condition="int">25</parameter>
<parameter name="warmupsteps" condition="int">25</parameter>
  DumpConfig==false Nothing (configurations, state) will be saved.
  Walker Samples are dumped every 1 steps.
</vmc>
  EstimatorManager::add replace LocalEnergy estimator.
  EstimatorManager::add replace LocalEnergy estimator.
<optimization-report>
<vmc stage="main" blocks="100">
  Cannot make clones again. Use existing 1 clones
  Initial partition of walkers 0 1 
  Total Sample Size   =51200
  Walker distribution on root = 0 1 
====================================================
  SimpleFixedNodeBranch::finalize after a VMC block
    QMC counter        = 9
    time step          = 0.5
    reference energy   = -17.2704
    reference variance = 0.398029
====================================================
  Execution time = 2.0526528770e+00
</vmc>
<opt stage="setup">
  <log>
   Reading configurations from h5FileRoot jopt-h2o.s009
  QMCCostFunctionOMP is created with 1
   Loading configuration from MCWalkerConfiguration::SampleStack 
    number of walkers before load 1
  Using Nonlocal PP in Opt: NonLocalECP
    number of walkers after load: 160 
Using buffers for temporary storage in QMCCostFunction.

Memory usage: 
Linear method (approx matrix usage: 4*N^2): 1.0025280000e+00 MB
Deriv,HDerivRecord:      6.7968000000e-01 MB
Buffer memory cost:     MB/walker       MB/total 
Orbitals only:           5.1200000000e-04      8.1920000000e-02
Orbitals + dervs:        2.5600000000e-03      4.0960000000e-01
Inverse:                 2.5600000000e-04      4.0960000000e-02
Determinants:            6.2560000000e-03      1.0009600000e+00
  VMC Eavg = -2.5571138710e+00
  VMC Evar = 1.2261466647e+03
  Total weights = 5.1200000000e+04
  Execution time = 4.2114744001e-01
  </log>
</opt>
<opt stage="main" walkers="51200">
  <log>
Iteration: 1/1
od_largest 4.3355044679e+12
  stabilityBase -6.0000000000e+00
  stabilizerScale 2.0000000000e+00
  Using XS:-6.0000000000e+00 0 0
ERROR CostFunction-> Number of Effective Walkers is too small 2.7022577105e+02 NumWalkersEff/NumSamples 5.2778470908e-03
ERROR CostFunction-> Number of Effective Walkers is too small 1.5713509074e+00 NumWalkersEff/NumSamples 3.0690447409e-05
ERROR CostFunction-> Number of Effective Walkers is too small 1.0002543825e+00 NumWalkersEff/NumSamples 1.9536218408e-05
ERROR CostFunction-> Number of Effective Walkers is too small 1.0000063405e+00 NumWalkersEff/NumSamples 1.9531373837e-05
ERROR CostFunction-> Number of Effective Walkers is too small 1.0016152397e+00 NumWalkersEff/NumSamples 1.9562797650e-05
ERROR CostFunction-> Number of Effective Walkers is too small 1.0002543825e+00 NumWalkersEff/NumSamples 1.9536218408e-05
  Failed Step. Largest LM parameter change:1.6228802168e+03
ERROR   Using XS:-4.0000000000e+00 1 0
ERROR CostFunction-> Number of Effective Walkers is too small 2.7003688312e+02 NumWalkersEff/NumSamples 5.2741578735e-03
ERROR CostFunction-> Number of Effective Walkers is too small 1.5712534643e+00 NumWalkersEff/NumSamples 3.0688544224e-05
ERROR CostFunction-> Number of Effective Walkers is too small 1.0002542041e+00 NumWalkersEff/NumSamples 1.9536214924e-05
ERROR CostFunction-> Number of Effective Walkers is too small 1.0000063342e+00 NumWalkersEff/NumSamples 1.9531373715e-05
ERROR CostFunction-> Number of Effective Walkers is too small 1.0016143277e+00 NumWalkersEff/NumSamples 1.9562779838e-05
ERROR CostFunction-> Number of Effective Walkers is too small 1.0002542041e+00 NumWalkersEff/NumSamples 1.9536214924e-05
  Failed Step. Largest LM parameter change:1.6230011937e+03
ERROR   Using XS:-2.0000000000e+00 2 0
ERROR CostFunction-> Number of Effective Walkers is too small 2.6854778001e+02 NumWalkersEff/NumSamples 5.2450738283e-03
ERROR CostFunction-> Number of Effective Walkers is too small 1.5704887148e+00 NumWalkersEff/NumSamples 3.0673607711e-05
ERROR CostFunction-> Number of Effective Walkers is too small 1.0002528096e+00 NumWalkersEff/NumSamples 1.9536187687e-05
ERROR CostFunction-> Number of Effective Walkers is too small 1.0000062853e+00 NumWalkersEff/NumSamples 1.9531372759e-05
ERROR CostFunction-> Number of Effective Walkers is too small 1.0016071942e+00 NumWalkersEff/NumSamples 1.9562640511e-05
ERROR CostFunction-> Number of Effective Walkers is too small 1.0002528096e+00 NumWalkersEff/NumSamples 1.9536187687e-05
  Failed Step. Largest LM parameter change:1.6239622701e+03
ERROR   Using XS:0.0000000000e+00 3 0
ERROR CostFunction-> Number of Effective Walkers is too small 2.4756091816e+02 NumWalkersEff/NumSamples 4.8351741828e-03
ERROR CostFunction-> Number of Effective Walkers is too small 1.5592705777e+00 NumWalkersEff/NumSamples 3.0454503471e-05
ERROR CostFunction-> Number of Effective Walkers is too small 1.0002329909e+00 NumWalkersEff/NumSamples 1.9535800604e-05
ERROR CostFunction-> Number of Effective Walkers is too small 1.0000056018e+00 NumWalkersEff/NumSamples 1.9531359410e-05
ERROR CostFunction-> Number of Effective Walkers is too small 1.0015049749e+00 NumWalkersEff/NumSamples 1.9560644042e-05
ERROR CostFunction-> Number of Effective Walkers is too small 1.0002329909e+00 NumWalkersEff/NumSamples 1.9535800604e-05
  Failed Step. Largest LM parameter change:1.6382301363e+03
ERROR   Using XS:2.0000000000e+00 4 0
Before:  ax = 0.0000000000e+00  bx=5.0004173985e-01  cx=0.0000000000e+00
After:  ax = 0.0000000000e+00  bx=5.0004173985e-01  cx=1.3091262763e+00
Minimum found at lambda = 5.3909934310e-01
  Failed Step. Largest LM parameter change:2.2842339856e+01
ERROR   Using XS:4.0000000000e+00 5 0
Before:  ax = 0.0000000000e+00  bx=5.0008744120e-01  cx=0.0000000000e+00
ERROR CostFunction-> Number of Effective Walkers is too small 8.3372441094e+02 NumWalkersEff/NumSamples 1.6283679901e-02
Problems bracketing minimum. Lower Value returned.
  Failed Step. Largest LM parameter change:1.8329661106e+01
ERROR   Using XS:6.0000000000e+00 6 0
ERROR CostFunction-> Number of Effective Walkers is too small 1.2249447608e+03 NumWalkersEff/NumSamples 2.3924702359e-02
ERROR CostFunction-> Number of Effective Walkers is too small 2.1943922534e+02 NumWalkersEff/NumSamples 4.2859223700e-03
ERROR CostFunction-> Number of Effective Walkers is too small 3.3762618474e+03 NumWalkersEff/NumSamples 6.5942614207e-02
ERROR CostFunction-> Number of Effective Walkers is too small 1.2249447608e+03 NumWalkersEff/NumSamples 2.3924702359e-02
  Failed Step. Largest LM parameter change:1.2319880385e+02
ERROR   Using XS:8.0000000000e+00 7 0
  Good Step. Largest LM parameter change:1.7264855408e-02
 OldCost: -1.6384357610e+01 NewCost: -1.6384357958e+01 Delta Cost:-3.4838161156e-07
      Current ene:     -1.7256359830e+01
      Current var:     1.8367760545e-01
      Current ene_urw:     -1.7256358277e+01
      Current var_urw: 1.8364634013e-01
Setting new Parameters
ERROR   Execution time = 1.1940237387e+01
  </log>
  <optVariables href="jopt-h2o.s009.opt.xml">
CSFcoeff_1 -2.2665907530e-02 3 1  ON 0
CSFcoeff_2 1.9823102738e-02 3 1  ON 1
CSFcoeff_3 -6.5857089802e-03 3 1  ON 2
CSFcoeff_4 1.1430872483e-02 3 1  ON 3
CSFcoeff_5 -1.1594894772e-02 3 1  ON 4
CSFcoeff_6 -1.9143243845e-02 3 1  ON 5
CSFcoeff_7 1.3064867856e-03 3 1  ON 6
CSFcoeff_8 -8.3342505929e-03 3 1  ON 7
CSFcoeff_9 1.0561933723e-02 3 1  ON 8
CSFcoeff_10 6.6345649210e-03 3 1  ON 9
CSFcoeff_11 8.5348555813e-03 3 1  ON 10
CSFcoeff_12 -9.6035762098e-03 3 1  ON 11
CSFcoeff_13 -7.8833301718e-03 3 1  ON 12
CSFcoeff_14 -1.6260889029e-02 3 1  ON 13
CSFcoeff_15 -1.7950270674e-02 3 1  ON 14
CSFcoeff_16 -4.5088575169e-03 3 1  ON 15
CSFcoeff_17 9.5533757092e-03 3 1  ON 16
CSFcoeff_18 -4.7966542835e-03 3 1  ON 17
CSFcoeff_19 -1.2137976811e-02 3 1  ON 18
CSFcoeff_20 -2.2846167593e-03 3 1  ON 19
CSFcoeff_21 -1.8450254057e-03 3 1  ON 20
CSFcoeff_22 1.5448616896e-03 3 1  ON 21
CSFcoeff_23 -2.7682805711e-03 3 1  ON 22
CSFcoeff_24 -1.6035974420e-03 3 1  ON 23
CSFcoeff_25 -1.7188145882e-02 3 1  ON 24
CSFcoeff_26 1.8721103022e-03 3 1  ON 25
CSFcoeff_27 4.8908550523e-03 3 1  ON 26
CSFcoeff_28 -3.5249451247e-03 3 1  ON 27
CSFcoeff_29 7.2195626291e-03 3 1  ON 28
CSFcoeff_30 8.8683186389e-04 3 1  ON 29
CSFcoeff_31 -2.9346476606e-03 3 1  ON 30
CSFcoeff_32 -8.8140226070e-03 3 1  ON 31
CSFcoeff_33 -1.4608345050e-03 3 1  ON 32
uu_0 4.2674585681e-01 1 1  ON 33
uu_1 2.8097121261e-01 1 1  ON 34
uu_2 2.0513599126e-01 1 1  ON 35
uu_3 1.6134064058e-01 1 1  ON 36
uu_4 1.2418506963e-01 1 1  ON 37
uu_5 8.6804256932e-02 1 1  ON 38
uu_6 5.8809135998e-02 1 1  ON 39
uu_7 3.6621574748e-02 1 1  ON 40
uu_8 3.2830048792e-02 1 1  ON 41
uu_9 -5.3171371938e-02 1 1  ON 42
ud_0 8.3516070053e-01 1 1  ON 43
ud_1 5.2114252566e-01 1 1  ON 44
ud_2 3.5495347573e-01 1 1  ON 45
ud_3 2.8336537868e-01 1 1  ON 46
ud_4 2.5691007916e-01 1 1  ON 47
ud_5 2.3505398307e-01 1 1  ON 48
ud_6 2.0380932002e-01 1 1  ON 49
ud_7 1.5440004586e-01 1 1  ON 50
ud_8 1.2851311737e-01 1 1  ON 51
ud_9 1.6005328203e-01 1 1  ON 52
eO_0 -1.1460399838e+01 1 1  ON 53
eO_1 -1.1050064984e+01 1 1  ON 54
eO_2 -1.0114984005e+01 1 1  ON 55
eO_3 -9.1158827220e+00 1 1  ON 56
eO_4 -8.3020674722e+00 1 1  ON 57
eO_5 -7.7352422201e+00 1 1  ON 58
eO_6 -7.6833288911e+00 1 1  ON 59
eO_7 -7.6530862557e+00 1 1  ON 60
eO_8 -6.2341089565e+00 1 1  ON 61
eO_9 -7.6670310507e+00 1 1  ON 62
eH_0 -7.6326169135e-01 1 1  ON 63
eH_1 -7.4277491862e-01 1 1  ON 64
eH_2 -7.3155153375e-01 1 1  ON 65
eH_3 -6.7935558190e-01 1 1  ON 66
eH_4 -6.3273241938e-01 1 1  ON 67
eH_5 -6.0624560460e-01 1 1  ON 68
eH_6 -6.1347416091e-01 1 1  ON 69
eH_7 -5.8896496829e-01 1 1  ON 70
eH_8 -5.3628195224e-01 1 1  ON 71
eH_9 -5.1708996530e-01 1 1  ON 72
uuO_0 7.7348561526e-06 1 1  ON 73
uuO_1 2.9000509877e-06 1 1  ON 74
uuO_2 -6.0052866769e-06 1 1  ON 75
uuO_3 -8.5517822732e-06 1 1  ON 76
uuO_4 -1.9998689140e-06 1 1  ON 77
uuO_5 9.2619554800e-06 1 1  ON 78
uuO_6 -5.4762798206e-06 1 1  ON 79
uuO_7 -2.5083337655e-07 1 1  ON 80
uuO_8 1.6902523869e-06 1 1  ON 81
uuO_9 -2.8763489089e-06 1 1  ON 82
uuO_10 -8.4207916128e-06 1 1  ON 83
uuO_11 1.4758412441e-06 1 1  ON 84
uuO_12 -1.2254509175e-06 1 1  ON 85
uuO_13 9.1179321126e-06 1 1  ON 86
uuO_14 6.4578497676e-07 1 1  ON 87
uuO_15 9.1694803747e-08 1 1  ON 88
uuO_16 1.7147836855e-05 1 1  ON 89
uuO_17 3.7212991752e-06 1 1  ON 90
uuO_18 3.4212952430e-07 1 1  ON 91
uuO_19 4.3990430893e-07 1 1  ON 92
uuO_20 -7.0910098548e-06 1 1  ON 93
uuO_21 -8.8239543892e-08 1 1  ON 94
uuO_22 -4.2653672042e-08 1 1  ON 95
uuO_23 3.6604725188e-06 1 1  ON 96
uuO_24 -1.9924156207e-07 1 1  ON 97
uuO_25 2.8198109765e-08 1 1  ON 98
udO_0 1.0802062859e-06 1 1  ON 99
udO_1 1.6742918224e-05 1 1  ON 100
udO_2 1.4937637270e-05 1 1  ON 101
udO_3 -7.1860246413e-06 1 1  ON 102
udO_4 -3.1902825328e-06 1 1  ON 103
udO_5 6.8187117391e-06 1 1  ON 104
udO_6 2.6756444068e-05 1 1  ON 105
udO_7 3.5064972375e-09 1 1  ON 106
udO_8 1.3581077751e-05 1 1  ON 107
udO_9 -1.4047017101e-05 1 1  ON 108
udO_10 -2.9333419254e-06 1 1  ON 109
udO_11 -1.2748901114e-05 1 1  ON 110
udO_12 -3.5328315450e-06 1 1  ON 111
udO_13 -4.4572433446e-07 1 1  ON 112
udO_14 1.9670856827e-06 1 1  ON 113
udO_15 1.6566336168e-07 1 1  ON 114
udO_16 3.2167727248e-05 1 1  ON 115
udO_17 -1.0419735646e-05 1 1  ON 116
udO_18 1.0408282405e-05 1 1  ON 117
udO_19 9.1097649388e-07 1 1  ON 118
udO_20 -5.1528264320e-06 1 1  ON 119
udO_21 -1.2519225564e-06 1 1  ON 120
udO_22 -2.7409898961e-08 1 1  ON 121
udO_23 2.7868428827e-06 1 1  ON 122
udO_24 -1.3156250201e-07 1 1  ON 123
udO_25 2.1856471346e-08 1 1  ON 124
uuH_0 3.8043145596e-06 1 1  ON 125
uuH_1 1.1354851755e-05 1 1  ON 126
uuH_2 2.8924346525e-06 1 1  ON 127
uuH_3 -2.3168735872e-06 1 1  ON 128
uuH_4 -1.4368924932e-07 1 1  ON 129
uuH_5 -6.2673414900e-07 1 1  ON 130
uuH_6 1.6160732223e-05 1 1  ON 131
uuH_7 -8.1331920551e-06 1 1  ON 132
uuH_8 1.4469776234e-07 1 1  ON 133
uuH_9 -1.6578680584e-05 1 1  ON 134
uuH_10 6.4274809491e-08 1 1  ON 135
uuH_11 -1.9399931025e-06 1 1  ON 136
uuH_12 7.1638276669e-07 1 1  ON 137
uuH_13 4.9240695291e-06 1 1  ON 138
uuH_14 -1.2014351608e-06 1 1  ON 139
uuH_15 5.9400014026e-08 1 1  ON 140
uuH_16 2.6552059431e-05 1 1  ON 141
uuH_17 -6.9149008834e-06 1 1  ON 142
uuH_18 4.4734998154e-06 1 1  ON 143
uuH_19 -8.2029429572e-07 1 1  ON 144
uuH_20 -7.7499798174e-06 1 1  ON 145
uuH_21 1.4672626553e-07 1 1  ON 146
uuH_22 2.6436086435e-08 1 1  ON 147
uuH_23 2.4344395248e-06 1 1  ON 148
uuH_24 -2.3473853038e-07 1 1  ON 149
uuH_25 2.7190953949e-08 1 1  ON 150
udH_0 -1.1126772623e-06 1 1  ON 151
udH_1 -1.5299205327e-05 1 1  ON 152
udH_2 5.6728502648e-07 1 1  ON 153
udH_3 2.8079787355e-06 1 1  ON 154
udH_4 -3.9656677744e-07 1 1  ON 155
udH_5 1.1917903196e-06 1 1  ON 156
udH_6 -1.2765896051e-05 1 1  ON 157
udH_7 -6.6827223446e-07 1 1  ON 158
udH_8 2.5187564800e-07 1 1  ON 159
udH_9 8.9826124665e-06 1 1  ON 160
udH_10 1.4160853315e-06 1 1  ON 161
udH_11 -1.9376036767e-06 1 1  ON 162
udH_12 -1.2024400295e-07 1 1  ON 163
udH_13 -2.0504480050e-06 1 1  ON 164
udH_14 -6.1205227185e-07 1 1  ON 165
udH_15 1.0465849272e-07 1 1  ON 166
udH_16 4.0313290779e-06 1 1  ON 167
udH_17 -5.7919900853e-06 1 1  ON 168
udH_18 3.3241389110e-06 1 1  ON 169
udH_19 -9.3646774071e-08 1 1  ON 170
udH_20 -1.8759135844e-06 1 1  ON 171
udH_21 -4.9614009704e-08 1 1  ON 172
udH_22 -4.8610487661e-08 1 1  ON 173
udH_23 9.1061197269e-07 1 1  ON 174
udH_24 -7.0668276106e-08 1 1  ON 175
udH_25 2.2804372820e-08 1 1  ON 176
  </optVariables>
   Restore the number of walkers to 1, removing 159 walkers.
</opt>
</optimization-report>
  QMC Execution time = 1.1953359990e+01 secs 
  Total Execution time = 1.5804893239e+02 secs

=========================================================
  A new xml input file : jopt-h2o.s009.cont.xml
Application 11223861 resources: utime ~50707s, stime ~148s, Rss ~28604, inblocks ~1283262, outblocks ~3298485
