
     Program PWSCF v.6.3MaX starts on  4Nov2019 at 14:26:18 

     This program is part of the open-source Quantum ESPRESSO suite
     for quantum simulation of materials; please cite
         "P. Giannozzi et al., J. Phys.:Condens. Matter 21 395502 (2009);
         "P. Giannozzi et al., J. Phys.:Condens. Matter 29 465901 (2017);
          URL http://www.quantum-espresso.org", 
     in publications or presentations arising from this work. More details at
     http://www.quantum-espresso.org/quote

     Parallel version (MPI), running on    16 processors

     MPI processes distributed on     1 nodes
     R & G space division:  proc/nbgrp/npool/nimage =      16
     Reading input from relax.in

     Current dimensions of program PWSCF are:
     Max number of different atomic species (ntypx) = 10
     Max number of k-points (npk) =  40000
     Max angular momentum in pseudopotentials (lmaxx) =  3

     IMPORTANT: XC functional enforced from input :
     Exchange-correlation      = LDA ( 1  1  0  0 0 0)
     Any further DFT definition will be discarded
     Please, verify this is what you really want

               file C.BFD.upf: wavefunction(s)  0s 0p renormalized

     Subspace diagonalization in iterative solution of the eigenvalue problem:
     a serial algorithm will be used


     Parallelization info
     --------------------
     sticks:   dense  smooth     PW     G-vecs:    dense   smooth      PW
     Min          54      54     15                 1071     1071     168
     Max          56      56     16                 1073     1073     172
     Sum         871     871    253                17153    17153    2733



     bravais-lattice index     =            0
     lattice parameter (alat)  =       9.5407  a.u.
     unit-cell volume          =     614.0889 (a.u.)^3
     number of atoms/cell      =           15
     number of atomic types    =            1
     number of electrons       =        60.00
     number of Kohn-Sham states=           30
     kinetic-energy cutoff     =      35.0000  Ry
     charge density cutoff     =     140.0000  Ry
     convergence threshold     =      1.0E-06
     mixing beta               =       0.7000
     number of iterations used =            8  plain     mixing
     Exchange-correlation      = LDA ( 1  1  0  0 0 0)
     nstep                     =           50


     celldm(1)=   9.540740  celldm(2)=   0.000000  celldm(3)=   0.000000
     celldm(4)=   0.000000  celldm(5)=   0.000000  celldm(6)=   0.000000

     crystal axes: (cart. coord. in units of alat)
               a(1) = (   0.707107   0.707107   0.000000 )  
               a(2) = (  -0.000000   0.707107   0.707107 )  
               a(3) = (   0.707107  -0.000000   0.707107 )  

     reciprocal axes: (cart. coord. in units 2 pi/alat)
               b(1) = (  0.707107  0.707107 -0.707107 )  
               b(2) = ( -0.707107  0.707107  0.707107 )  
               b(3) = (  0.707107 -0.707107  0.707107 )  


     PseudoPot. # 1 for C  read from file:
     ./C.BFD.upf
     MD5 check sum: 44213404c8404db625590c8337a04dfd
     Pseudo is Norm-conserving, Zval =  4.0
     Generated by new atomic code, or converted to UPF format
     Using radial grid of 2000 points,  1 beta functions with: 
                l(1) =   0

     atomic species   valence    mass     pseudopotential
        C              4.00    12.01100     C ( 1.00)

     24 Sym. Ops. (no inversion) found (18 have fractional translation)



   Cartesian axes

     site n.     atom                  positions (alat units)
         1           C   tau(   1) = (   0.0000000   0.0000000   0.0000000  )
         2           C   tau(   2) = (   0.3535534   0.3535534   0.0000000  )
         3           C   tau(   3) = (   0.5303301   0.5303301   0.1767767  )
         4           C   tau(   4) = (  -0.0000000   0.3535534   0.3535534  )
         5           C   tau(   5) = (   0.1767767   0.5303301   0.5303301  )
         6           C   tau(   6) = (   0.3535534   0.7071068   0.3535534  )
         7           C   tau(   7) = (   0.5303301   0.8838835   0.5303301  )
         8           C   tau(   8) = (   0.3535534  -0.0000000   0.3535534  )
         9           C   tau(   9) = (   0.5303301   0.1767767   0.5303301  )
        10           C   tau(  10) = (   0.7071068   0.3535534   0.3535534  )
        11           C   tau(  11) = (   0.8838835   0.5303301   0.5303301  )
        12           C   tau(  12) = (   0.3535534   0.3535534   0.7071068  )
        13           C   tau(  13) = (   0.5303301   0.5303301   0.8838835  )
        14           C   tau(  14) = (   0.7071068   0.7071068   0.7071068  )
        15           C   tau(  15) = (   0.8838835   0.8838835   0.8838835  )

     number of k points=     3
                       cart. coord. in units 2pi/alat
        k(    1) = (   0.0000000   0.0000000   0.0000000), wk =   0.2500000
        k(    2) = (  -0.3535534   0.3535534  -0.3535534), wk =   1.0000000
        k(    3) = (   0.0000000   0.0000000  -0.7071068), wk =   0.7500000

     Dense  grid:    17153 G-vectors     FFT dimensions: (  36,  36,  36)

     Estimated max dynamical RAM per process >       2.16 MB

     Estimated total dynamical RAM >      34.55 MB

     Initial potential from superposition of free atoms

     starting charge    4.77463, renormalised to   60.00000
     Starting wfcs are   60 randomized atomic wfcs

     total cpu time spent up to now is        0.7 secs

     Self-consistent Calculation

     iteration #  1     ecut=    35.00 Ry     beta= 0.70
     Davidson diagonalization with overlap
     ethr =  1.00E-02,  avg # of iterations =  2.0

     total cpu time spent up to now is        0.9 secs

     total energy              =    -168.30366565 Ry
     Harris-Foulkes estimate   =    -168.64676819 Ry
     estimated scf accuracy    <       0.71052349 Ry

     iteration #  2     ecut=    35.00 Ry     beta= 0.70
     Davidson diagonalization with overlap
     ethr =  1.18E-03,  avg # of iterations =  2.3

     total cpu time spent up to now is        1.1 secs

     total energy              =    -168.37073172 Ry
     Harris-Foulkes estimate   =    -168.40080370 Ry
     estimated scf accuracy    <       0.05197206 Ry

     iteration #  3     ecut=    35.00 Ry     beta= 0.70
     Davidson diagonalization with overlap
     ethr =  8.66E-05,  avg # of iterations =  3.3

     total cpu time spent up to now is        1.4 secs

     total energy              =    -168.38313345 Ry
     Harris-Foulkes estimate   =    -168.39061045 Ry
     estimated scf accuracy    <       0.01390430 Ry

     iteration #  4     ecut=    35.00 Ry     beta= 0.70
     Davidson diagonalization with overlap
     ethr =  2.32E-05,  avg # of iterations =  2.7

     total cpu time spent up to now is        1.7 secs

     total energy              =    -168.38614073 Ry
     Harris-Foulkes estimate   =    -168.38624498 Ry
     estimated scf accuracy    <       0.00026686 Ry

     iteration #  5     ecut=    35.00 Ry     beta= 0.70
     Davidson diagonalization with overlap
     ethr =  4.45E-07,  avg # of iterations =  3.3

     total cpu time spent up to now is        2.0 secs

     total energy              =    -168.38622231 Ry
     Harris-Foulkes estimate   =    -168.38626026 Ry
     estimated scf accuracy    <       0.00007190 Ry

     iteration #  6     ecut=    35.00 Ry     beta= 0.70
     Davidson diagonalization with overlap
     ethr =  1.20E-07,  avg # of iterations =  2.7

     total cpu time spent up to now is        2.2 secs

     End of self-consistent calculation

          k = 0.0000 0.0000 0.0000 (  2109 PWs)   bands (ev):

    -8.8425  -3.3505  -3.3505  -3.3505  -2.4968  -0.9615  -0.8262  -0.8262
    -0.8262  -0.4037  -0.4037   0.3872   0.3872   0.3872   5.7870   6.3704
     6.3704   6.3704   7.2754   7.2754   7.2754   9.8714   9.8714   9.9269
     9.9269   9.9269  11.6649  11.6649  11.6649  15.5208

          k =-0.3536 0.3536-0.3536 (  2138 PWs)   bands (ev):

    -7.4330  -6.8544  -3.1727  -3.1676  -3.1676  -2.7982  -2.7982  -0.7488
     1.6206   1.6206   1.6492   2.4635   2.4635   4.0515   5.7136   5.7136
     5.7502   5.7937   5.9698   5.9698   7.6847   7.7511   7.7511   7.8360
     8.9139   9.2712   9.2712  11.0253  11.0253  11.2113

          k = 0.0000 0.0000-0.7071 (  2164 PWs)   bands (ev):

    -6.8299  -6.4741  -4.7667  -4.5083  -4.5083  -2.9358   0.3414   0.6939
     0.6939   2.1322   3.7853   3.9157   3.9157   4.3055   4.4222   4.4903
     4.4903   4.5652   5.6438   5.6438   6.5782   6.5792   8.4826   8.4826
     8.9900   8.9900   9.6750   9.8266  10.1991  11.1307

     highest occupied level (ev):    15.5208

!    total energy              =    -168.38623938 Ry
     Harris-Foulkes estimate   =    -168.38623960 Ry
     estimated scf accuracy    <       0.00000046 Ry

     The total energy is the sum of the following terms:

     one-electron contribution =      51.58897661 Ry
     hartree contribution      =      16.40195608 Ry
     xc contribution           =     -52.08095782 Ry
     ewald contribution        =    -184.29621425 Ry

     convergence has been achieved in   6 iterations

     Forces acting on atoms (cartesian axes, Ry/au):

     atom    1 type  1   force =    -0.04625982   -0.04625982   -0.04625982
     atom    2 type  1   force =     0.04625982    0.04625982   -0.04625982
     atom    3 type  1   force =     0.00000000    0.00000000    0.02650527
     atom    4 type  1   force =    -0.04625982    0.04625982    0.04625982
     atom    5 type  1   force =     0.02650527    0.00000000    0.00000000
     atom    6 type  1   force =    -0.00204127    0.00204127   -0.00204127
     atom    7 type  1   force =     0.00000000   -0.02650527    0.00000000
     atom    8 type  1   force =     0.04625982   -0.04625982    0.04625982
     atom    9 type  1   force =     0.00000000    0.02650527    0.00000000
     atom   10 type  1   force =     0.00204127   -0.00204127   -0.00204127
     atom   11 type  1   force =    -0.02650527   -0.00000000    0.00000000
     atom   12 type  1   force =    -0.00204127   -0.00204127    0.00204127
     atom   13 type  1   force =     0.00000000    0.00000000   -0.02650527
     atom   14 type  1   force =     0.00204127    0.00204127    0.00204127
     atom   15 type  1   force =     0.00000000    0.00000000    0.00000000

     Total force =     0.173046     Total SCF correction =     0.000082

     BFGS Geometry Optimization

     number of scf cycles    =   1
     number of bfgs steps    =   0

     energy   new            =    -168.3862393842 Ry

     new trust radius        =       0.0801243658 bohr
     new conv_thr            =       0.0000010000 Ry


ATOMIC_POSITIONS (bohr)
C       -0.046259824  -0.046259824  -0.046259824
C        3.419420974   3.419420974  -0.046259824
C        5.059741720   5.059741720   1.713085840
C       -0.046259824   3.419420974   3.419420974
C        1.713085840   5.059741720   5.059741720
C        3.371119876   6.748363564   3.371119866
C        5.059741720   8.406397590   5.059741720
C        3.419420974  -0.046259824   3.419420974
C        5.059741720   1.713085840   5.059741720
C        6.748363564   3.371119876   3.371119876
C        8.406397590   5.059741720   5.059741720
C        3.371119876   3.371119876   6.748363564
C        5.059741720   5.059741720   8.406397590
C        6.748363564   6.748363564   6.748363564
C        8.432902860   8.432902860   8.432902860



     Writing output data file pwscf.save/
     NEW-OLD atomic charge density approx. for the potential

     total cpu time spent up to now is        2.3 secs

     Self-consistent Calculation

     iteration #  1     ecut=    35.00 Ry     beta= 0.70
     Davidson diagonalization with overlap
     ethr =  1.00E-06,  avg # of iterations =  8.7

     total cpu time spent up to now is        2.9 secs

     total energy              =    -168.33164154 Ry
     Harris-Foulkes estimate   =    -168.47758467 Ry
     estimated scf accuracy    <       0.19229067 Ry

     iteration #  2     ecut=    35.00 Ry     beta= 0.70
     Davidson diagonalization with overlap
     ethr =  3.20E-04,  avg # of iterations =  4.0

     total cpu time spent up to now is        3.2 secs

     total energy              =    -168.39115701 Ry
     Harris-Foulkes estimate   =    -168.43122737 Ry
     estimated scf accuracy    <       0.06924125 Ry

     iteration #  3     ecut=    35.00 Ry     beta= 0.70
     Davidson diagonalization with overlap
     ethr =  1.15E-04,  avg # of iterations =  3.0

     total cpu time spent up to now is        3.4 secs

     total energy              =    -168.40610630 Ry
     Harris-Foulkes estimate   =    -168.40626072 Ry
     estimated scf accuracy    <       0.00029424 Ry

     iteration #  4     ecut=    35.00 Ry     beta= 0.70
     Davidson diagonalization with overlap
     ethr =  4.90E-07,  avg # of iterations =  4.0

     total cpu time spent up to now is        3.8 secs

     total energy              =    -168.40637046 Ry
     Harris-Foulkes estimate   =    -168.40644763 Ry
     estimated scf accuracy    <       0.00015621 Ry

     iteration #  5     ecut=    35.00 Ry     beta= 0.70
     Davidson diagonalization with overlap
     ethr =  2.60E-07,  avg # of iterations =  2.3

     total cpu time spent up to now is        4.0 secs

     total energy              =    -168.40640735 Ry
     Harris-Foulkes estimate   =    -168.40640569 Ry
     estimated scf accuracy    <       0.00000579 Ry

     iteration #  6     ecut=    35.00 Ry     beta= 0.70
     Davidson diagonalization with overlap
     ethr =  9.65E-09,  avg # of iterations =  3.3

     total cpu time spent up to now is        4.3 secs

     total energy              =    -168.40640922 Ry
     Harris-Foulkes estimate   =    -168.40640974 Ry
     estimated scf accuracy    <       0.00000106 Ry

     iteration #  7     ecut=    35.00 Ry     beta= 0.70
     Davidson diagonalization with overlap
     ethr =  1.77E-09,  avg # of iterations =  2.7

     total cpu time spent up to now is        4.5 secs

     End of self-consistent calculation

          k = 0.0000 0.0000 0.0000 (  2109 PWs)   bands (ev):

    -8.9424  -3.4600  -3.4600  -3.4600  -2.6665  -1.1856  -0.9606  -0.9606
    -0.9606  -0.5084  -0.5084   0.4547   0.4547   0.4547   6.2313   6.3036
     6.3036   6.3036   7.1227   7.1227   7.1227   9.6134   9.6134   9.8914
     9.8914   9.8914  11.5035  11.5035  11.5035  15.6958

          k =-0.3536 0.3536-0.3536 (  2138 PWs)   bands (ev):

    -7.5532  -6.9499  -3.3360  -3.3007  -3.3007  -2.8520  -2.8520  -0.7180
     1.4450   1.5212   1.5212   2.4898   2.4898   4.0063   5.5673   5.6080
     5.6080   5.6597   5.8556   5.8556   7.5241   7.6173   7.6173   7.8865
     9.1221   9.1221   9.2750  10.8766  10.8766  11.5130

          k = 0.0000 0.0000-0.7071 (  2164 PWs)   bands (ev):

    -6.9612  -6.5729  -4.9429  -4.5956  -4.5956  -2.8946   0.2067   0.6183
     0.6183   2.1195   3.5985   3.8485   3.8485   4.1873   4.2971   4.3431
     4.3872   4.3872   5.6616   5.6616   6.4568   6.5640   8.3385   8.3385
     8.8454   8.8454   9.4234   9.8171  10.7166  11.2098

     highest occupied level (ev):    15.6958

!    total energy              =    -168.40640935 Ry
     Harris-Foulkes estimate   =    -168.40640939 Ry
     estimated scf accuracy    <       0.00000007 Ry

     The total energy is the sum of the following terms:

     one-electron contribution =      49.91298846 Ry
     hartree contribution      =      17.13070346 Ry
     xc contribution           =     -52.15988239 Ry
     ewald contribution        =    -183.29021888 Ry

     convergence has been achieved in   7 iterations

     Forces acting on atoms (cartesian axes, Ry/au):

     atom    1 type  1   force =    -0.02192410   -0.02192410   -0.02192410
     atom    2 type  1   force =     0.02192410    0.02192410   -0.02192410
     atom    3 type  1   force =     0.00000000    0.00000000   -0.01131570
     atom    4 type  1   force =    -0.02192410    0.02192410    0.02192410
     atom    5 type  1   force =    -0.01131570    0.00000000    0.00000000
     atom    6 type  1   force =     0.00169361   -0.00169361    0.00169361
     atom    7 type  1   force =     0.00000000    0.01131570    0.00000000
     atom    8 type  1   force =     0.02192410   -0.02192410    0.02192410
     atom    9 type  1   force =     0.00000000   -0.01131570    0.00000000
     atom   10 type  1   force =    -0.00169361    0.00169361    0.00169361
     atom   11 type  1   force =     0.01131570   -0.00000000    0.00000000
     atom   12 type  1   force =     0.00169361    0.00169361   -0.00169361
     atom   13 type  1   force =    -0.00000000    0.00000000    0.01131570
     atom   14 type  1   force =    -0.00169361   -0.00169361   -0.00169361
     atom   15 type  1   force =     0.00000000    0.00000000    0.00000000

     Total force =     0.081060     Total SCF correction =     0.000036

     number of scf cycles    =   2
     number of bfgs steps    =   1

     energy   old            =    -168.3862393842 Ry
     energy   new            =    -168.4064093470 Ry

     CASE: energy  _new < energy  _old

     new trust radius        =       0.0767250234 bohr
     new conv_thr            =       0.0000002192 Ry


ATOMIC_POSITIONS (bohr)
C       -0.090557037  -0.090557037  -0.090557037
C        3.463718187   3.463718187  -0.090557037
C        5.059741720   5.059741720   1.702015360
C       -0.090557037   3.463718187   3.463718187
C        1.702015360   5.059741720   5.059741720
C        3.373227532   6.746255908   3.373227522
C        5.059741720   8.417468070   5.059741720
C        3.463718187  -0.090557037   3.463718187
C        5.059741720   1.702015360   5.059741720
C        6.746255908   3.373227532   3.373227532
C        8.417468070   5.059741720   5.059741720
C        3.373227532   3.373227532   6.746255908
C        5.059741720   5.059741720   8.417468070
C        6.746255908   6.746255908   6.746255908
C        8.432902860   8.432902860   8.432902860



     Writing output data file pwscf.save/
     NEW-OLD atomic charge density approx. for the potential

     total cpu time spent up to now is        4.6 secs

     Self-consistent Calculation

     iteration #  1     ecut=    35.00 Ry     beta= 0.70
     Davidson diagonalization with overlap
     ethr =  1.00E-06,  avg # of iterations =  8.7

     total cpu time spent up to now is        5.3 secs

     total energy              =    -168.23494686 Ry
     Harris-Foulkes estimate   =    -168.54988398 Ry
     estimated scf accuracy    <       0.39966070 Ry

     iteration #  2     ecut=    35.00 Ry     beta= 0.70
     Davidson diagonalization with overlap
     ethr =  6.66E-04,  avg # of iterations =  3.7

     total cpu time spent up to now is        5.6 secs

     total energy              =    -168.35091632 Ry
     Harris-Foulkes estimate   =    -168.49985187 Ry
     estimated scf accuracy    <       0.27132596 Ry

     iteration #  3     ecut=    35.00 Ry     beta= 0.70
     Davidson diagonalization with overlap
     ethr =  4.52E-04,  avg # of iterations =  2.7

     total cpu time spent up to now is        5.8 secs

     total energy              =    -168.41063878 Ry
     Harris-Foulkes estimate   =    -168.41317884 Ry
     estimated scf accuracy    <       0.00470559 Ry

     iteration #  4     ecut=    35.00 Ry     beta= 0.70
     Davidson diagonalization with overlap
     ethr =  7.84E-06,  avg # of iterations =  3.0

     total cpu time spent up to now is        6.1 secs

     total energy              =    -168.41258264 Ry
     Harris-Foulkes estimate   =    -168.41264637 Ry
     estimated scf accuracy    <       0.00013613 Ry

     iteration #  5     ecut=    35.00 Ry     beta= 0.70
     Davidson diagonalization with overlap
     ethr =  2.27E-07,  avg # of iterations =  3.3

     total cpu time spent up to now is        6.4 secs

     total energy              =    -168.41263084 Ry
     Harris-Foulkes estimate   =    -168.41262678 Ry
     estimated scf accuracy    <       0.00000897 Ry

     iteration #  6     ecut=    35.00 Ry     beta= 0.70
     Davidson diagonalization with overlap
     ethr =  1.50E-08,  avg # of iterations =  3.0

     total cpu time spent up to now is        6.7 secs

     total energy              =    -168.41263272 Ry
     Harris-Foulkes estimate   =    -168.41263308 Ry
     estimated scf accuracy    <       0.00000099 Ry

     iteration #  7     ecut=    35.00 Ry     beta= 0.70
     Davidson diagonalization with overlap
     ethr =  1.64E-09,  avg # of iterations =  2.7

     total cpu time spent up to now is        6.9 secs

     End of self-consistent calculation

          k = 0.0000 0.0000 0.0000 (  2109 PWs)   bands (ev):

    -9.0333  -3.5615  -3.5615  -3.5615  -2.9281  -1.2142  -1.0582  -1.0582
    -1.0582  -0.6188  -0.6188   0.4749   0.4749   0.4749   6.2551   6.2551
     6.2551   6.5036   7.0138   7.0138   7.0138   9.3294   9.3294   9.8528
     9.8528   9.8528  11.4330  11.4330  11.4330  15.7764

          k =-0.3536 0.3536-0.3536 (  2138 PWs)   bands (ev):

    -7.6564  -7.0504  -3.4630  -3.3682  -3.3682  -2.9737  -2.9737  -0.7586
     1.3171   1.4592   1.4592   2.4837   2.4837   3.9376   5.5065   5.5298
     5.5298   5.5880   5.6956   5.6956   7.4980   7.5302   7.5302   7.8188
     8.9922   8.9922   9.4720  10.7949  10.7949  11.7136

          k = 0.0000 0.0000-0.7071 (  2164 PWs)   bands (ev):

    -7.1142  -6.6116  -5.1205  -4.6747  -4.6747  -2.8852   0.0642   0.5218
     0.5218   2.1663   3.3820   3.8502   3.8502   4.0588   4.0787   4.2761
     4.2761   4.3044   5.6378   5.6378   6.3159   6.6333   8.1938   8.1938
     8.8410   8.8410   9.1552   9.7981  11.0902  11.1989

     highest occupied level (ev):    15.7764

!    total energy              =    -168.41263281 Ry
     Harris-Foulkes estimate   =    -168.41263290 Ry
     estimated scf accuracy    <       0.00000012 Ry

     The total energy is the sum of the following terms:

     one-electron contribution =      48.16626345 Ry
     hartree contribution      =      17.90968231 Ry
     xc contribution           =     -52.23923655 Ry
     ewald contribution        =    -182.24934202 Ry

     convergence has been achieved in   7 iterations

     Forces acting on atoms (cartesian axes, Ry/au):

     atom    1 type  1   force =     0.00053272    0.00053272    0.00053272
     atom    2 type  1   force =    -0.00053272   -0.00053272    0.00053272
     atom    3 type  1   force =     0.00000000    0.00000000   -0.00137220
     atom    4 type  1   force =     0.00053272   -0.00053272   -0.00053272
     atom    5 type  1   force =    -0.00137220   -0.00000000    0.00000000
     atom    6 type  1   force =    -0.00313124    0.00313124   -0.00313124
     atom    7 type  1   force =     0.00000000    0.00137220   -0.00000000
     atom    8 type  1   force =    -0.00053272    0.00053272   -0.00053272
     atom    9 type  1   force =    -0.00000000   -0.00137220    0.00000000
     atom   10 type  1   force =     0.00313124   -0.00313124   -0.00313124
     atom   11 type  1   force =     0.00137220    0.00000000   -0.00000000
     atom   12 type  1   force =    -0.00313124   -0.00313124    0.00313124
     atom   13 type  1   force =     0.00000000    0.00000000    0.00137220
     atom   14 type  1   force =     0.00313124    0.00313124    0.00313124
     atom   15 type  1   force =     0.00000000    0.00000000    0.00000000

     Total force =     0.011505     Total SCF correction =     0.000046

     number of scf cycles    =   3
     number of bfgs steps    =   2

     energy   old            =    -168.4064093470 Ry
     energy   new            =    -168.4126328053 Ry

     CASE: energy  _new < energy  _old

     new trust radius        =       0.0053307113 bohr
     new conv_thr            =       0.0000000313 Ry


ATOMIC_POSITIONS (bohr)
C       -0.089936864  -0.089936864  -0.089936864
C        3.463098014   3.463098014  -0.089936864
C        5.059741720   5.059741720   1.700773468
C       -0.089936864   3.463098014   3.463098014
C        1.700773468   5.059741720   5.059741720
C        3.370149845   6.749333595   3.370149835
C        5.059741720   8.418709962   5.059741720
C        3.463098014  -0.089936864   3.463098014
C        5.059741720   1.700773468   5.059741720
C        6.749333595   3.370149845   3.370149845
C        8.418709962   5.059741720   5.059741720
C        3.370149845   3.370149845   6.749333595
C        5.059741720   5.059741720   8.418709962
C        6.749333595   6.749333595   6.749333595
C        8.432902860   8.432902860   8.432902860



     Writing output data file pwscf.save/
     NEW-OLD atomic charge density approx. for the potential

     total cpu time spent up to now is        7.0 secs

     Self-consistent Calculation

     iteration #  1     ecut=    35.00 Ry     beta= 0.70
     Davidson diagonalization with overlap
     ethr =  1.00E-06,  avg # of iterations =  4.0

     total cpu time spent up to now is        7.4 secs

     total energy              =    -168.41148703 Ry
     Harris-Foulkes estimate   =    -168.41350036 Ry
     estimated scf accuracy    <       0.00247860 Ry

     iteration #  2     ecut=    35.00 Ry     beta= 0.70
     Davidson diagonalization with overlap
     ethr =  4.13E-06,  avg # of iterations =  3.0

     total cpu time spent up to now is        7.7 secs

     total energy              =    -168.41216839 Ry
     Harris-Foulkes estimate   =    -168.41338992 Ry
     estimated scf accuracy    <       0.00235296 Ry

     iteration #  3     ecut=    35.00 Ry     beta= 0.70
     Davidson diagonalization with overlap
     ethr =  3.92E-06,  avg # of iterations =  3.0

     total cpu time spent up to now is        8.0 secs

     total energy              =    -168.41266998 Ry
     Harris-Foulkes estimate   =    -168.41266829 Ry
     estimated scf accuracy    <       0.00000951 Ry

     iteration #  4     ecut=    35.00 Ry     beta= 0.70
     Davidson diagonalization with overlap
     ethr =  1.59E-08,  avg # of iterations =  3.7

     total cpu time spent up to now is        8.3 secs

     total energy              =    -168.41267747 Ry
     Harris-Foulkes estimate   =    -168.41267805 Ry
     estimated scf accuracy    <       0.00000115 Ry

     iteration #  5     ecut=    35.00 Ry     beta= 0.70
     Davidson diagonalization with overlap
     ethr =  1.92E-09,  avg # of iterations =  2.7

     total cpu time spent up to now is        8.6 secs

     total energy              =    -168.41267771 Ry
     Harris-Foulkes estimate   =    -168.41267772 Ry
     estimated scf accuracy    <       0.00000005 Ry

     iteration #  6     ecut=    35.00 Ry     beta= 0.70
     Davidson diagonalization with overlap
     ethr =  7.91E-11,  avg # of iterations =  3.0

     total cpu time spent up to now is        9.0 secs

     End of self-consistent calculation

          k = 0.0000 0.0000 0.0000 (  2109 PWs)   bands (ev):

    -9.0335  -3.5543  -3.5543  -3.5543  -2.9398  -1.2145  -1.0679  -1.0679
    -1.0679  -0.6120  -0.6120   0.4816   0.4816   0.4816   6.2594   6.2594
     6.2594   6.5024   7.0039   7.0039   7.0039   9.3480   9.3480   9.8550
     9.8550   9.8550  11.4274  11.4274  11.4274  15.7726

          k =-0.3536 0.3536-0.3536 (  2138 PWs)   bands (ev):

    -7.6612  -7.0426  -3.4793  -3.3648  -3.3648  -2.9685  -2.9685  -0.7477
     1.3150   1.4543   1.4543   2.4850   2.4850   3.9403   5.5040   5.5397
     5.5397   5.5718   5.7034   5.7034   7.5060   7.5179   7.5179   7.8181
     9.0035   9.0035   9.4726  10.7909  10.7909  11.7106

          k = 0.0000 0.0000-0.7071 (  2164 PWs)   bands (ev):

    -7.1078  -6.6256  -5.1057  -4.6715  -4.6715  -2.8989   0.0736   0.5220
     0.5220   2.1576   3.3835   3.8550   3.8550   4.0666   4.0932   4.2706
     4.2706   4.3026   5.6391   5.6391   6.3107   6.6319   8.2034   8.2034
     8.8237   8.8237   9.1752   9.7977  11.0827  11.2024

     highest occupied level (ev):    15.7726

!    total energy              =    -168.41267772 Ry
     Harris-Foulkes estimate   =    -168.41267773 Ry
     estimated scf accuracy    <          6.3E-09 Ry

     The total energy is the sum of the following terms:

     one-electron contribution =      48.17523012 Ry
     hartree contribution      =      17.90606207 Ry
     xc contribution           =     -52.23849407 Ry
     ewald contribution        =    -182.25547584 Ry

     convergence has been achieved in   6 iterations

     Forces acting on atoms (cartesian axes, Ry/au):

     atom    1 type  1   force =     0.00006653    0.00006653    0.00006653
     atom    2 type  1   force =    -0.00006653   -0.00006653    0.00006653
     atom    3 type  1   force =     0.00000000    0.00000000   -0.00045821
     atom    4 type  1   force =     0.00006653   -0.00006653   -0.00006653
     atom    5 type  1   force =    -0.00045821    0.00000000    0.00000000
     atom    6 type  1   force =     0.00082949   -0.00082949    0.00082949
     atom    7 type  1   force =     0.00000000    0.00045821    0.00000000
     atom    8 type  1   force =    -0.00006653    0.00006653   -0.00006653
     atom    9 type  1   force =     0.00000000   -0.00045821    0.00000000
     atom   10 type  1   force =    -0.00082949    0.00082949    0.00082949
     atom   11 type  1   force =     0.00045821    0.00000000   -0.00000000
     atom   12 type  1   force =     0.00082949    0.00082949   -0.00082949
     atom   13 type  1   force =     0.00000000    0.00000000    0.00045821
     atom   14 type  1   force =    -0.00082949   -0.00082949   -0.00082949
     atom   15 type  1   force =     0.00000000    0.00000000    0.00000000

     Total force =     0.003093     Total SCF correction =     0.000016

     bfgs converged in   4 scf cycles and   3 bfgs steps
     (criteria: energy <  1.0E-04 Ry, force <  1.0E-03 Ry/Bohr)

     End of BFGS Geometry Optimization

     Final energy   =    -168.4126777236 Ry
Begin final coordinates

ATOMIC_POSITIONS (bohr)
C       -0.089936864  -0.089936864  -0.089936864
C        3.463098014   3.463098014  -0.089936864
C        5.059741720   5.059741720   1.700773468
C       -0.089936864   3.463098014   3.463098014
C        1.700773468   5.059741720   5.059741720
C        3.370149845   6.749333595   3.370149835
C        5.059741720   8.418709962   5.059741720
C        3.463098014  -0.089936864   3.463098014
C        5.059741720   1.700773468   5.059741720
C        6.749333595   3.370149845   3.370149845
C        8.418709962   5.059741720   5.059741720
C        3.370149845   3.370149845   6.749333595
C        5.059741720   5.059741720   8.418709962
C        6.749333595   6.749333595   6.749333595
C        8.432902860   8.432902860   8.432902860
End final coordinates



     Writing output data file pwscf.save/

     init_run     :      0.13s CPU      0.21s WALL (       1 calls)
     electrons    :      5.84s CPU      8.01s WALL (       4 calls)
     update_pot   :      0.09s CPU      0.11s WALL (       3 calls)
     forces       :      0.13s CPU      0.14s WALL (       4 calls)

     Called by init_run:
     wfcinit      :      0.07s CPU      0.13s WALL (       1 calls)
     potinit      :      0.01s CPU      0.03s WALL (       1 calls)
     hinit0       :      0.04s CPU      0.04s WALL (       1 calls)

     Called by electrons:
     c_bands      :      5.34s CPU      7.28s WALL (      26 calls)
     sum_band     :      0.42s CPU      0.59s WALL (      26 calls)
     v_of_rho     :      0.04s CPU      0.05s WALL (      30 calls)
     mix_rho      :      0.02s CPU      0.04s WALL (      26 calls)

     Called by c_bands:
     init_us_2    :      0.01s CPU      0.01s WALL (     171 calls)
     cegterg      :      5.27s CPU      7.18s WALL (      78 calls)

     Called by sum_band:

     Called by *egterg:
     h_psi        :      2.77s CPU      3.85s WALL (     353 calls)
     g_psi        :      0.00s CPU      0.00s WALL (     272 calls)
     cdiaghg      :      1.47s CPU      1.97s WALL (     341 calls)

     Called by h_psi:
     h_psi:pot    :      2.76s CPU      3.84s WALL (     353 calls)
     h_psi:calbec :      0.15s CPU      0.25s WALL (     353 calls)
     vloc_psi     :      2.57s CPU      3.55s WALL (     353 calls)
     add_vuspsi   :      0.04s CPU      0.05s WALL (     353 calls)

     General routines
     calbec       :      0.17s CPU      0.27s WALL (     401 calls)
     fft          :      0.07s CPU      0.10s WALL (     101 calls)
     ffts         :      0.01s CPU      0.02s WALL (      26 calls)
     fftw         :      2.84s CPU      3.95s WALL (   18022 calls)

     Parallel routines
     fft_scatt_xy :      0.13s CPU      0.15s WALL (   18149 calls)
     fft_scatt_yz :      1.82s CPU      2.75s WALL (   18149 calls)

     PWSCF        :     6.70s CPU         9.05s WALL


   This run was terminated on:  14:26:27   4Nov2019            

=------------------------------------------------------------------------------=
   JOB DONE.
=------------------------------------------------------------------------------=
