  Input file(s): dmc.in.xml 

=====================================================
                    QMCPACK 3.7.9

       (c) Copyright 2003-  QMCPACK developers

                    Please cite:
 J. Kim et al. J. Phys. Cond. Mat. 30 195901 (2018)
      https://doi.org/10.1088/1361-648X/aab9c3

  Git branch: develop
  Last git commit: ff48df3b90b681c02190f8d49e805336cf82019f
  Last git commit date: Mon Apr 1 14:00:47 2019 -0500
  Last git commit subject: Merge pull request #1528 from QMCPACK/prckent-patch-1
=====================================================
  Global options 

  Total number of MPI ranks = 12
  Number of MPI groups      = 1
  MPI group ID              = 0
  Number of ranks in group  = 12
  MPI ranks per node        = 12
  OMP 1st level threads     = 1
  OMP nested threading disabled or only 1 thread on the 2nd level

  Precision used in this calculation, see definitions in the manual:
  Base precision      = double
  Full precision      = double

  Structure-of-arrays (SoA) optimization enabled

  Input XML = dmc.in.xml

  Project = dmc
  date    = 2019-11-05 09:32:13 EST
  host    = viribus

  hamiltonian has MPC. Will read density if it is found.
 Random Number
 -------------
  Offset for the random number seeds based on time: 1005

  Range of prime numbers to use as seeds over processors and threads = 7993-8101


 Lattice
 -------
  Simulation cell radius   = 1.947495 bohr
  Wigner-Seitz cell radius = 2.385185 bohr

 Unit Cell
 ---------
  Lattice (bohr):      3.3731611500      3.3731611500      0.0000000000
                      -0.0000000000      3.3731611500      3.3731611500
                       3.3731611500     -0.0000000000      3.3731611500

  Boundary Conditions:  p  p  p 

  Volume (bohr^3) = 76.7611133056

  Reciprocal vectors without 2*pi.
    g_1 =       0.1482289098      0.1482289098     -0.1482289098
    g_2 =      -0.1482289098      0.1482289098      0.1482289098
    g_3 =       0.1482289098     -0.1482289098      0.1482289098

  Metric tensor in real-space.
    h_1 = 22.7564322877 11.3782161439 11.3782161439 
    h_2 = 11.3782161439 22.7564322877 11.3782161439 
    h_3 = 11.3782161439 11.3782161439 22.7564322877 

  Metric tensor in g-space.
    h_1 = 2.6022368383 -0.8674122794 -0.8674122794 
    h_2 = -0.8674122794 2.6022368383 -0.8674122794 
    h_3 = -0.8674122794 -0.8674122794 2.6022368383 

 Particle Set 
 ------------
  Name: e
  Initializing the lattice by the global supercell
  All the species have the same mass 1.0000000000
  Long-range breakup parameters:
    rc*kc = 15.0000000000; rc = 1.9474954980; kc = 7.7022000901

  Creating Structure Factor for periodic systems 7.7022000901
  KContainer initialised with cutoff 7.7022000901
   # of K-shell  = 25
   # of K points = 608

  Particle set size: 8

 Particle Set 
 ------------
  Name: ion0
  Initializing the lattice by the global supercell
  All the species have the same mass 21894.7135906000
  Long-range breakup parameters:
    rc*kc = 15.0000000000; rc = 1.9474954980; kc = 7.7022000901

  Creating Structure Factor for periodic systems 7.7022000901
  KContainer initialised with cutoff 7.7022000901
   # of K-shell  = 25
   # of K points = 608

  Particle set size: 2

 Wavefunction setup: 
 ------------------- 
  Name: psi0
building sposet collection of type bspline
  Created SPOSet builder named 'bspline' of type bspline
  Building SPOSet "spo_ud" with bspline SPOSetBuilder

  Distance table for similar particles (A-A):
    source/target: e
    Using structure-of-arrays (SoA) data layout
    Distance computations use general periodic cell in 3D with corner image checks.


  Distance table for dissimilar particles (A-B):
    source: ion0  target: e
    Using structure-of-arrays (SoA) data layout
    Distance computations use general periodic cell in 3D with corner image checks.


  Distance table for similar particles (A-A):
    source/target: ion0
    Using structure-of-arrays (SoA) data layout
    Distance computations use general periodic cell in 3D with corner image checks.

  TileMatrix = 
 [  1  0  0
    0  1  0
    0  0  1 ]
  Reading 4 orbitals from HDF5 file.
  HDF5 orbital file version 2.1.0
  Reading orbital file in ESHDF format.
  ESHDF orbital file version 2.1.0
  Lattice = 
    [  3.373161  3.373161  0.000000
       0.000000  3.373161  3.373161
       3.373161  0.000000  3.373161 ]
  SuperLattice = 
    [  3.373161  3.373161  0.000000
       0.000000  3.373161  3.373161
       3.373161  0.000000  3.373161 ]
bands=4, elecs=8, spins=1, twists=1, muffin tins=0, core states=0
atomic orbital=0
Atom type(0) = 6
Atom type(1) = 6
  Read 29363 density G-vectors.
  EinsplineSetBuilder found density in the HDF5 file.
  Read 0 VHXC G-vectors.
TIMER  EinsplineSetBuilder::ReadOrbitalInfo 0.0038822019
TIMER  EinsplineSetBuilder::BroadcastOrbitalInfo 0.0030634860
Found 1 distinct supercell twists.
number of things
1
1
Super twist #0:  [   0.00000   0.00000   0.00000 ]
  Using supercell twist 0:  [   0.00000   0.00000   0.00000]
Using 1 copies of twist angle [-0.000, -0.000, -0.000]
Using real orbitals.
Sorting the bands now:
We will read 4 distinct orbitals.
There are 0 core states and 4 valence states.
BandInfoGroup::selectBands bigspace has 4 distinct orbitals 
BandInfoGroup::selectBands using distinct orbitals [0,4)
  Number of distinct bands 4
  First Band index 0
  First SPO index 0
  Size of SPOs 4
  AdoptorName = SplineR2RSoAAdoptor
  Using real einspline table
  Can use SoA implementation for mGL
NumDistinctOrbitals 4 numOrbs = 4
  TwistIndex = 0 TwistAngle      -0.0000000000     -0.0000000000     -0.0000000000
   HalfG =                  0                 0                 0
B-spline mesh factor is 1.0000000000
B-spline mesh size is (40, 40, 40)
Maxmimum number of Gvecs 3695
  Using meshsize=                40                40                40
  vs input meshsize=                40                40                40
MEMORY 2 MB allocated for the coefficients in 3D spline orbital representation
Start transforming plane waves to 3D B-Splines.
  Time to gather the table = 0.0012673149
  Time to bcast the table = 0.0021903641
  SplineAdoptorReader initialize_spline_pio 0.0116819027 sec
Time spent in creating B-spline SPOs 0.0185284913sec
 Missing both "@name" and "@type". Use the last SPOSetBuilder.
  Creating a determinant updet group=0 sposet=spo_ud
  Reusing a SPO set spo_ud
Using DiracDeterminant with DelayedUpdate engine
Using rank-1 Sherman-Morrison Fahy update

  Creating a determinant downdet group=1 sposet=spo_ud
  Reusing a SPO set spo_ud
Using DiracDeterminant with DelayedUpdate engine
Using rank-1 Sherman-Morrison Fahy update

  FermionWF = SlaterDet
  RadialJastrowBuilder adds a functor with cusp = -0.2500000000
 size = 8 parameters 
 cusp = -0.2500000000
 rcut = 2.3851851232
Parameter     Name      Value
uu_0 0.2576630369 1 1  ON 0
uu_1 0.1796686015 1 1  ON 1
uu_2 0.1326653657 1 1  ON 2
uu_3 0.0940718082 1 1  ON 3
uu_4 0.0626701312 1 1  ON 4
uu_5 0.0389910002 1 1  ON 5
uu_6 0.0207023560 1 1  ON 6
uu_7 0.0092297757 1 1  ON 7
  RadialJastrowBuilder adds a functor with cusp = -0.5000000000
 size = 8 parameters 
 cusp = -0.5000000000
 rcut = 2.3851851232
Parameter     Name      Value
ud_0 0.4385891515 1 1  ON 0
ud_1 0.3212399072 1 1  ON 1
ud_2 0.2275448261 1 1  ON 2
ud_3 0.1558506324 1 1  ON 3
ud_4 0.1009589176 1 1  ON 4
ud_5 0.0610843355 1 1  ON 5
ud_6 0.0315427444 1 1  ON 6
ud_7 0.0138948598 1 1  ON 7
  QMCHamiltonian::addOperator Kinetic to H, physical Hamiltonian 

  Creating CoulombHandler with the optimal breakup. 
  KContainer initialised with cutoff 44.3527652081
   # of K-shell  = 759
   # of K points = 113394

  NUMBER OF OPT_BREAK KVECS = 37906580313
 finding kc:  7.7022000901 , -1.0000000000
  LRBreakp parameter Kc =7.7022000901
    Continuum approximation in k = [44.3527652081,3080.8800360496)

   LR Breakup chi^2 = 1.13641e-15
   PBCAA self-interaction term -6.29930
   PBCAA total constant -6.93867
  Maximum K shell 24
  Number of k vectors 608
  Fixed Coulomb potential for e
    e-e Madelung Const. =-0.32981
    Vtot     =0.00000
  QMCHamiltonian::addOperator ElecElec to H, physical Hamiltonian 
QMCHamiltonian::addOperatorType added type coulomb named ElecElec
  Clone CoulombHandler. 
   PBCAA self-interaction term -25.19719
   PBCAA total constant -25.83656
  Maximum K shell 24
  Number of k vectors 608
  Fixed Coulomb potential for ion0
    e-e Madelung Const. =-0.32981
    Vtot     =-12.77567
  QMCHamiltonian::addOperator IonIon to H, physical Hamiltonian 
QMCHamiltonian::addOperatorType added type coulomb named IonIon

  ECPotential builder for pseudopotential 

  Adding pseudopotential for C
   Linear grid  ri=0.00000 rf=10.00000 npts = 10001
    ECPComponentBuilder::buildSemiLocalAndLocal 
    Assuming Hartree unit
   Number of angular momentum channels 2
   Maximum angular momentum channel 1
   Creating a Linear Grid Rmax=1.70000
  Using global grid with delta = 0.00100
   Making L=1 a local potential with a radial cutoff of 9.99900
    Non-local pseudopotential parameters
    Maximum angular mementum = 0
    Number of non-local channels = 1
       l(0)=0
    Cutoff radius = 1.70000
    Spherical grids and weights: 
             1.0000000000      0.0000000000      0.0000000000        0.0833333333
            -1.0000000000      0.0000000000      0.0000000000        0.0833333333
             0.4472135955      0.8944271910      0.0000000000        0.0833333333
            -0.4472135955      0.7236067977      0.5257311121        0.0833333333
             0.4472135955      0.2763932023      0.8506508084        0.0833333333
            -0.4472135955     -0.2763932023      0.8506508084        0.0833333333
             0.4472135955     -0.7236067977      0.5257311121        0.0833333333
            -0.4472135955     -0.8944271910      0.0000000000        0.0833333333
             0.4472135955     -0.7236067977     -0.5257311121        0.0833333333
            -0.4472135955     -0.2763932023     -0.8506508084        0.0833333333
             0.4472135955      0.2763932023     -0.8506508084        0.0833333333
            -0.4472135955      0.7236067977     -0.5257311121        0.0833333333
    Maximum cutoff radius 1.7000000000
  Clone CoulombHandler. 
   Constant of PBCAB 1.2787412094
  Rcut                1.9474954980
  Maximum K shell     24
  Number of k vectors 608
    CoulombPBCAB::add 
 Setting a linear grid=[0,1.9474954980) number of grid =1948
    Creating the short-range pseudopotential for species 0
  QMCHamiltonian::addOperator LocalECP to H, physical Hamiltonian 

  Using NonLocalECP potential 
    Maximum grid on a sphere for NonLocalECPotential: 12
  QMCHamiltonian::addOperator NonLocalECP to H, physical Hamiltonian 
QMCHamiltonian::addOperatorType added type pseudo named PseudoPot

  === Initializing MPC interaction === 
  Using 609 G-vectors for MPC interaction.
   Using real-space box of size [20,20,20] for MPC spline.
    Linear extrap    = 4.733389420197e-01
    Quadratic extrap = 4.733389419372e-01
    Worst MPC discrepancy:
      Linear Extrap   : -9.98876324296009e-05
      Quadratic Extrap: -9.98878520817299e-05
  Constant potential = 1.843232612466e+01
  === MPC interaction initialized === 

  QMCHamiltonian::addOperator MPC to auxH 
QMCHamiltonian::addOperatorType added type MPC named MPC
  Adding SpinDensity
  QMCHamiltonian::addOperator SpinDensity to auxH 
QMCHamiltonian::addOperatorType added type spindensity named SpinDensity

  QMCHamiltonian::add2WalkerProperty added
    6 to P::PropertyList 
    54 to P::Collectables 
    starting Index of the observables in P::PropertyList = 9
ParticleSetPool::randomize 
  Initialization Execution time = 3.3822e+00 secs
=========================================================
 Summary of QMC systems 
=========================================================
ParticleSetPool has: 

  ParticleSet e : 0 4 8 

    8

    u  1.3046170035e+00  2.4674796527e+00  3.0901603993e+00
    u  1.1570104905e+00  3.4774491765e+00  2.3261747451e+00
    u  4.8451484753e+00  5.5758338178e+00  5.2389191911e+00
    u  5.4462669627e+00  3.5928382391e+00  3.3353439715e+00
    d  3.4999796778e+00  4.7990043349e+00  2.2956583170e+00
    d  1.1973387698e+00  1.7960171708e+00  1.4062237368e+00
    d  3.2998370568e+00  3.5506158184e+00  1.2670822522e+00
    d  4.0369077211e+00  8.7664815229e-01  3.5737563702e+00

  ParticleSet ion0 : 0 2 

    2

    C  0.0000000000e+00  0.0000000000e+00  0.0000000000e+00
    C  1.6865805800e+00  1.6865805700e+00  1.6865805700e+00

  Hamiltonian h0
  Kinetic         Kinetic energy
  ElecElec        CoulombPBCAA potential: e_e
  IonIon          CoulombPBCAA potential: ion0_ion0
  LocalECP        CoulombPBCAB potential source: ion0
  NonLocalECP     NonLocalECPotential: ion0

=========================================================
  Start VMC
  File Root dmc.s000 append = no 
=========================================================
  Adding 1 walkers to 0 existing sets
  Total number of walkers: 1.2000000000e+01
  Total weight: 1.2000000000e+01
  Resetting Properties of the walkers 1 x 15

<vmc function="put">
  qmc_counter=0  my_counter=0
  time step      = 3.0000000000e-01
  blocks         = 10
  steps          = 100
  substeps       = 3
  current        = 0
  target samples = 1.2800000000e+02
  walkers/mpi    = 1

  stepsbetweensamples = 90
<parameter name="blocks" condition="int">10</parameter>
<parameter name="blocks_between_recompute" condition="int">0</parameter>
<parameter name="check_properties" condition="int">100</parameter>
<parameter name="checkproperties" condition="int">100</parameter>
<parameter name="current" condition="int">0</parameter>
<parameter name="dmcwalkersperthread" condition="real">1.1000000000e+01</parameter>
<parameter name="maxcpusecs" condition="real">3.6000000000e+05</parameter>
<parameter name="record_configs" condition="int">0</parameter>
<parameter name="record_walkers" condition="int">90</parameter>
<parameter name="recordconfigs" condition="int">0</parameter>
<parameter name="recordwalkers" condition="int">90</parameter>
<parameter name="rewind" condition="int">0</parameter>
<parameter name="samples" condition="real">1.2800000000e+02</parameter>
<parameter name="samplesperthread" condition="real">1.1000000000e+01</parameter>
<parameter name="steps" condition="int">100</parameter>
<parameter name="stepsbetweensamples" condition="int">90</parameter>
<parameter name="store_configs" condition="int">0</parameter>
<parameter name="storeconfigs" condition="int">0</parameter>
<parameter name="sub_steps" condition="int">3</parameter>
<parameter name="substeps" condition="int">3</parameter>
<parameter name="tau" condition="au">3.0000000000e-01</parameter>
<parameter name="time_step" condition="au">3.0000000000e-01</parameter>
<parameter name="timestep" condition="au">3.0000000000e-01</parameter>
<parameter name="use_drift" condition="string">yes</parameter>
<parameter name="usedrift" condition="string">yes</parameter>
<parameter name="walkers" condition="int">1</parameter>
<parameter name="warmup_steps" condition="int">30</parameter>
<parameter name="warmupsteps" condition="int">30</parameter>
  DumpConfig==false Nothing (configurations, state) will be saved.
  Walker Samples are dumped every 90 steps.
</vmc>
  Adding a default LocalEnergyEstimator for the MainEstimator 
  Using CollectablesEstimator for collectables, e.g. sk, gofr, density 
  Initial partition of walkers 0 1 

  Using Particle by Particle moves
  Walker moves with drift
  Total Sample Size   =132
  Walker distribution on root = 0 1 
  Using Locality Approximation
===== Memory Usage after the buffer registration =====
Available memory on node 0, free + buffers : 12993 MB
Memory footprint by rank 0 on node 0       : 558 MB
==================================================
  Anonymous Buffer size per walker : 2272 Bytes.
MEMORY increase 0 MB VMC::resetRun
====================================================
  SimpleFixedNodeBranch::finalize after a VMC block
    QMC counter        = 0
    time step          = 0.3
    reference energy   = -10.4039
    reference variance = 0.30342
====================================================
  QMC Execution time = 8.7130e-01 secs

=========================================================
  Start DMC
  File Root dmc.s001 append = no 
=========================================================
Using existing walkers 
  Resetting Properties of the walkers 1 x 15
  Cannot make clones again. Use existing 1 clones
  Total number of walkers: 1.3200e+02
  Total weight: 1.3200e+02
  Creating WalkerController: target  number of walkers = 128
  Using WalkerControlMPI for dynamic population control.
  START ALL OVER 
  WalkerControlBase parameters 
    maxCopy = 2
    Max Walkers per MPI rank 21
    Min Walkers per MPI rank 3
    Using non-blocking send/recv
  QMC counter      = 1
  time step        = 2.0000e-02
  effective time step = 2.0000e-02
  trial energy     = -1.0404e+01
  reference energy = -1.0404e+01
  Feedback = 1.0000e+00
  reference variance = 3.0342e-01
  target walkers = 128
  branching cutoff scheme classic
  branch cutoff = 5.0000e+01 7.5000e+01
  Max and minimum walkers per node= 21 3
  QMC Status (BranchMode) = 0000001101
  Initial partition of walkers on a node: 0 11 
  Updates by particle-by-particle moves
  DMC moves are rejected when a node crossing is detected
  Using Locality Approximation
===== Memory Usage after the buffer registration =====
Available memory on node 0, free + buffers : 13091 MB
Memory footprint by rank 0 on node 0       : 558 MB
==================================================
SimpleFixedNodeBranch::checkParameters 
  Average Energy of a population  = -10.437
  Energy Variance = 0.38825

  Fluctuating population
  Persistent walkers are killed after 1 MC sweeps
  BranchInterval = 1
  Steps per block = 800
  Number of blocks = 50

  DMC Engine Initialization = 9.0375e-03 secs

 Warmup is completed after 20

  TauEff     = 1.9678e-02
 TauEff/Tau = 9.8388e-01
  Etrial     = -1.0505e+01
 Running average of energy = -1.0527e+01
                  Variance = 3.6349e-01
branch cutoff = 1.0000e+01 1.5000e+01
====================================================
  SimpleFixedNodeBranch::finalize after a DMC block
    QMC counter                   = 1
    time step                     = 0.02
    effective time step           = 0.0195887
    trial energy                  = -10.5
    reference energy              = -10.5317
    reference variance            = 0.363494
    target walkers                = 128
    branch cutoff                 = 10 15
    Max and minimum walkers per node= 21 3
    Feedback                      = 1
    QMC Status (BranchMode)       = 0000001111
====================================================
  QMC Execution time = 3.7306e+02 secs
  Reusing DMC
BRANCH resetRun
 SimpleFixedNodeBranch::resetRun detected changes in <parameter>'s 
 BranchMode : 0000001111 0000001111
  WalkerControlBase parameters 
    maxCopy = 2
    Max Walkers per MPI rank 21
    Min Walkers per MPI rank 3
    Using non-blocking send/recv
 iParam (old): 0                 1                 1                 128               21                3                 1                 0                 
 iParam (new): 40                1                 1                 128               21                3                 1                 0                 
 vParam (old): 2.0000000000e-02  1.9588698940e-02  -1.0499963970e+01 -1.0531712668e+01 -1.0612048887e+01 1.5000000000e+01  1.0000000000e+01  2.0000000000e-01  3.6349355892e-01  -4.2106848453e+05 3.9981000000e+04  1.0000000000e+00  1.0000000000e+01  1.0000000000e+00  1.0000000000e+00  1.0000000000e+00  1.0000000000e+00  
 vParam (new): 1.0000000000e-02  1.9588698940e-02  -1.0499963970e+01 -1.0531712668e+01 -1.0612048887e+01 1.5000000000e+01  1.0000000000e+01  2.0000000000e-01  3.6349355892e-01  -4.2106848453e+05 3.9981000000e+04  1.0000000000e+00  1.0000000000e+01  1.0000000000e+00  1.0000000000e+00  1.0000000000e+00  1.0000000000e+00  

 Using branching cutoff scheme classic
SimpleFixedNodeBranch::checkParameters 
  Average Energy of a population  = -10.6102
  Energy Variance = 0.281634

  Using Locality Approximation
===== Memory Usage after the buffer registration =====
Available memory on node 0, free + buffers : 13115 MB
Memory footprint by rank 0 on node 0       : 558 MB
==================================================

=========================================================
  Start DMC
  File Root dmc.s002 append = no 
=========================================================
Using existing walkers 
  Resetting Properties of the walkers 1 x 15
  Cannot make clones again. Use existing 1 clones
SimpleFixedNodeBranch::checkParameters 
  Average Energy of a population  = -10.6103
  Energy Variance = 0.281534

  Fluctuating population
  Persistent walkers are killed after 1 MC sweeps
  BranchInterval = 1
  Steps per block = 1600
  Number of blocks = 50

  DMC Engine Initialization = 2.6215780526e-03 secs

 Warmup is completed after 40

  TauEff     = 9.9174438191e-03
 TauEff/Tau = 9.9174438191e-01
  Etrial     = -1.1365595794e+01
 Running average of energy = -1.0582928181e+01
                  Variance = 3.4200079063e-01
branch cutoff = 1.0000000000e+01 1.5000000000e+01
====================================================
  SimpleFixedNodeBranch::finalize after a DMC block
    QMC counter                   = 2
    time step                     = 0.01
    effective time step           = 0.00991517
    trial energy                  = -10.5145
    reference energy              = -10.5302
    reference variance            = 0.342001
    target walkers                = 128
    branch cutoff                 = 10 15
    Max and minimum walkers per node= 21 3
    Feedback                      = 1
    QMC Status (BranchMode)       = 0000001111
====================================================
  QMC Execution time = 7.5046e+02 secs
  Reusing DMC
BRANCH resetRun
 SimpleFixedNodeBranch::resetRun detected changes in <parameter>'s 
 BranchMode : 0000001111 0000001111
  WalkerControlBase parameters 
    maxCopy = 2
    Max Walkers per MPI rank 21
    Min Walkers per MPI rank 3
    Using non-blocking send/recv
 iParam (old): 0                 1                 2                 128               21                3                 1                 0                 
 iParam (new): 80                1                 2                 128               21                3                 1                 0                 
 vParam (old): 1.0000000000e-02  9.9151653389e-03  -1.0514457730e+01 -1.0530206087e+01 -1.0460098807e+01 1.5000000000e+01  1.0000000000e+01  2.0000000000e-01  3.4200079063e-01  -8.4200573878e+05 7.9961000000e+04  1.0000000000e+00  1.0000000000e+01  1.0000000000e+00  1.0000000000e+00  1.0000000000e+00  1.0000000000e+00  
 vParam (new): 5.0000000000e-03  9.9151653389e-03  -1.0514457730e+01 -1.0530206087e+01 -1.0460098807e+01 1.5000000000e+01  1.0000000000e+01  2.0000000000e-01  3.4200079063e-01  -8.4200573878e+05 7.9961000000e+04  1.0000000000e+00  1.0000000000e+01  1.0000000000e+00  1.0000000000e+00  1.0000000000e+00  1.0000000000e+00  

 Using branching cutoff scheme classic
SimpleFixedNodeBranch::checkParameters 
  Average Energy of a population  = -10.4575
  Energy Variance = 0.280433

  Using Locality Approximation
===== Memory Usage after the buffer registration =====
Available memory on node 0, free + buffers : 13129 MB
Memory footprint by rank 0 on node 0       : 558 MB
==================================================

=========================================================
  Start DMC
  File Root dmc.s003 append = no 
=========================================================
Using existing walkers 
  Resetting Properties of the walkers 1 x 15
  Cannot make clones again. Use existing 1 clones
SimpleFixedNodeBranch::checkParameters 
  Average Energy of a population  = -10.4577
  Energy Variance = 0.280725

  Fluctuating population
  Persistent walkers are killed after 1 MC sweeps
  BranchInterval = 1
  Steps per block = 3200
  Number of blocks = 50

  DMC Engine Initialization = 3.4303078428e-04 secs

 Warmup is completed after 80

  TauEff     = 4.9810794232e-03
 TauEff/Tau = 9.9621588463e-01
  Etrial     = -1.0450716130e+01
 Running average of energy = -1.0434621620e+01
                  Variance = 3.6905761790e-01
branch cutoff = 1.0000000000e+01 1.5000000000e+01
====================================================
  SimpleFixedNodeBranch::finalize after a DMC block
    QMC counter                   = 3
    time step                     = 0.005
    effective time step           = 0.00498286
    trial energy                  = -10.5444
    reference energy              = -10.5289
    reference variance            = 0.369058
    target walkers                = 128
    branch cutoff                 = 10 15
    Max and minimum walkers per node= 21 3
    Feedback                      = 1
    QMC Status (BranchMode)       = 0000001111
====================================================
  QMC Execution time = 1.5020e+03 secs
  Total Execution time = 2.6264e+03 secs

=========================================================
  A new xml input file : dmc.s003.cont.xml
