#INFO: **** input file is /home/abenali/Work/Development/QMCPACK-Benali/qmcpack/tests/molecules/FeCO6_b3lyp_pyscf/pyscf/FeCO6.py ****
#! /usr/bin/env python3

'''
Gamma point Hartree-Fock/DFT
The 2-electron integrals are computed using Poisson solver with FFT by default.
In most scenario, it should be used with pseudo potential.
'''

# Note import path which is different to molecule code
#from pyscf.pbc import gto, scf, df, dft
from pyscf import gto, df, dft
import  numpy





cell = gto.M(
   atom ='''
             Fe    0.0000013   -0.0000001   -0.0000001
             C     0.0000037   -0.0072194    2.3405884
             O    -0.0000299   -0.0415619    3.4549199
             C     2.3029923   -0.0000137   -0.0000135
             O     3.4182461   -0.0000170   -0.0000168
             C    -2.3029877    0.0000133    0.0000131
             O    -3.4182415    0.0000167    0.0000165
             C    -0.0000019    0.0072196   -2.3405883
             O     0.0000250    0.0415622   -3.4549197
             C    -0.0000028   -2.3369861    0.0065791
             O     0.0000240   -3.4513475    0.0412328
             C     0.0000037    2.3369862   -0.0065788
             O    -0.0000326    3.4513476   -0.0412324
''',
   basis ='bfd-vtz',
   ecp='bfd',
   unit="angstrom",
   spin=4,
   verbose = 5,
   cart = False,
   charge = 2,
)




mf = dft.RKS(cell).density_fit()
#mf = dft.RKS(cell)
mf.xc = 'b3lyp'
#mf.chkfile = 'FeCO6.chk'
#dm = mf.from_chk('FeCO6.chk')
mf.chkfile = 'FeCO6-spherical.chk'
dm = mf.from_chk('FeCO6-spherical.chk')
mf.kernel(dm)
#mf.kernel()

title='FeCO6'
kpts=[]

from PyscfToQmcpack import savetoqmcpack
savetoqmcpack(cell,mf,title=title,kpts=kpts)
#INFO: ******************** input file end ********************


System: uname_result(system='Linux', node='abenali', release='4.15.0-112-generic', version='#113-Ubuntu SMP Thu Jul 9 23:41:39 UTC 2020', machine='x86_64', processor='x86_64')  Threads 8
Python 3.6.9 (default, Jul 17 2020, 12:50:27) 
[GCC 8.4.0]
numpy 1.15.4  scipy 1.1.0
Date: Mon Aug 24 10:54:40 2020
PySCF version 1.6.4
PySCF path  /home/abenali/Work/src/pyscf/pyscf
GIT ORIG_HEAD a75bcf7966f0e9c0a30c188cc2a7f0bdf268b5e8
GIT HEAD      ref: refs/heads/master
GIT master branch  a75bcf7966f0e9c0a30c188cc2a7f0bdf268b5e8

[CONFIG] conf_file None
[INPUT] verbose = 5
[INPUT] max_memory = 4000 
[INPUT] num. atoms = 13
[INPUT] num. electrons = 74
[INPUT] charge = 2
[INPUT] spin (= nelec alpha-beta = 2S) = 4
[INPUT] symmetry False subgroup None
[INPUT] Mole.unit = angstrom
[INPUT]  1 Fe     0.000001300000  -0.000000100000  -0.000000100000 AA    0.000002456644  -0.000000188973  -0.000000188973 Bohr
[INPUT]  2 C      0.000003700000  -0.007219400000   2.340588400000 AA    0.000006991987  -0.013642688784   4.423071046334 Bohr
[INPUT]  3 O     -0.000029900000  -0.041561900000   3.454919900000 AA   -0.000056502811  -0.078540608217   6.528852393310 Bohr
[INPUT]  4 C      2.302992300000  -0.000013700000  -0.000013500000 AA    4.352024713982  -0.000025889248  -0.000025511303 Bohr
[INPUT]  5 O      3.418246100000  -0.000017000000  -0.000016800000 AA    6.459548955363  -0.000032125344  -0.000031747399 Bohr
[INPUT]  6 C     -2.302987700000   0.000013300000   0.000013100000 AA   -4.352016021242   0.000025133357   0.000024755412 Bohr
[INPUT]  7 O     -3.418241500000   0.000016700000   0.000016500000 AA   -6.459540262622   0.000031558426   0.000031180481 Bohr
[INPUT]  8 C     -0.000001900000   0.007219600000  -2.340588300000 AA   -0.000003590480   0.013643066729  -4.423070857361 Bohr
[INPUT]  9 O      0.000025000000   0.041562200000  -3.454919700000 AA    0.000047243153   0.078541175134  -6.528852015364 Bohr
[INPUT] 10 C     -0.000002800000  -2.336986100000   0.006579100000 AA   -0.000005291233  -4.416263685915   0.012432697146 Bohr
[INPUT] 11 O      0.000024000000  -3.451347500000   0.041232800000 AA    0.000045353427  -6.522101535702   0.077918699349 Bohr
[INPUT] 12 C      0.000003700000   2.336986200000  -0.006578800000 AA    0.000006991987   4.416263874888  -0.012432130228 Bohr
[INPUT] 13 O     -0.000032600000   3.451347600000  -0.041232400000 AA   -0.000061605072   6.522101724675  -0.077917943459 Bohr
[INPUT] ---------------- BASIS SET ---------------- 
[INPUT] l, kappa, [nprim/nctr], expnt,             c_1 c_2 ...
[INPUT] C
[INPUT] 0    0    [9    /1   ]  13.073594         -0.000705
                                6.541187          0.015176
                                3.272791          -0.121499
                                1.637494          -0.033512
                                0.819297          0.180113
                                0.409924          0.380369
                                0.2051            0.397529
                                0.102619          0.169852
                                0.051344          0.013991
[INPUT] 0    0    [1    /1   ]  0.921552             1
[INPUT] 0    0    [1    /1   ]  0.1328               1
[INPUT] 1    0    [9    /1   ]  7.480076          0.021931
                                3.741035          0.054425
                                1.871016          0.112024
                                0.935757          0.210979
                                0.468003          0.289868
                                0.234064          0.302667
                                0.117063          0.191634
                                0.058547          0.050426
                                0.029281          0.001787
[INPUT] 1    0    [1    /1   ]  0.126772             1
[INPUT] 1    0    [1    /1   ]  0.376742             1
[INPUT] 2    0    [1    /1   ]  0.329486             1
[INPUT] 2    0    [1    /1   ]  1.141611             1
[INPUT] 3    0    [1    /1   ]  0.773485             1
[INPUT] O
[INPUT] 0    0    [9    /1   ]  54.775216         -7.6e-05
                                25.616801         0.000407
                                11.980245         0.012024
                                5.602818          -0.128627
                                2.620277          0.019567
                                1.225429          0.295926
                                0.573098          0.453752
                                0.268022          0.304848
                                0.125346          0.055741
[INPUT] 0    0    [1    /1   ]  1.686633             1
[INPUT] 0    0    [1    /1   ]  0.237997             1
[INPUT] 1    0    [9    /1   ]  21.217318         0.004679
                                10.620108         0.039899
                                5.315785          0.082308
                                2.660761          0.161134
                                1.331816          0.242835
                                0.666627          0.281879
                                0.333673          0.255999
                                0.167017          0.150175
                                0.083598          0.044958
[INPUT] 1    0    [1    /1   ]  0.184696             1
[INPUT] 1    0    [1    /1   ]  0.600621             1
[INPUT] 2    0    [1    /1   ]  0.66934              1
[INPUT] 2    0    [1    /1   ]  2.404278             1
[INPUT] 3    0    [1    /1   ]  1.423104             1
[INPUT] Fe
[INPUT] 0    0    [8    /4   ]  25.882657         -0.010318 0.000341 -0.030967 0.429968
                                14.037755         0.230364 -0.047646 -0.034192 -1.786544
                                9.007794          -0.566551 0.136465 0.383443 1.482641
                                2.06835           0.544437 -0.153371 -1.259192 2.684004
                                0.993498          0.540001 -0.288555 -0.098913 -6.15249
                                0.471151          0.143115 -0.044212 1.194321 4.806621
                                0.102489          0.007386 0.704768 0.555024 -2.134831
                                0.036902          0.001869 0.415407 -1.077563 0.805728
[INPUT] 0    0    [1    /1   ]  0.0175               1
[INPUT] 1    0    [7    /4   ]  16.659389         0.007223 -0.00556 0.008185 0.037533
                                10.450653         -0.070315 0.063506 -0.125348 0.089805
                                4.183289          0.229161 -0.276956 0.657186 -1.569597
                                2.117962          0.393199 -0.321479 0.505908 1.106861
                                1.064494          0.361596 -0.004808 -0.773757 1.129157
                                0.514743          0.154139 0.330833 -0.592779 -1.167998
                                0.210442          0.016498 0.357095 0.185315 -0.795499
[INPUT] 1    0    [1    /1   ]  0.105                1
[INPUT] 2    0    [6    /3   ]  10.232413         0.081591 -0.0865 -0.101424
                                4.841151          0.26319 -0.339738 -0.548492
                                2.039827          0.342856 -0.328882 -0.002091
                                0.840565          0.338326 0.130025 0.828457
                                0.328485          0.24073 0.494941 -0.088206
                                0.116926          0.088375 0.365933 -0.590958
[INPUT] 2    0    [1    /1   ]  0.058                1
[INPUT] 3    0    [1    /1   ]  1.340407             1
[INPUT] 3    0    [1    /1   ]  4.50241              1
[INPUT] 4    0    [1    /1   ]  3.599562             1

nuclear repulsion = 422.430491715947
number of shells = 117
number of NR pGTOs = 823
number of NR cGTOs = 411
basis = bfd-vtz
ecp = bfd
CPU time:         0.24


******** <class 'pyscf.df.df_jk.density_fit.<locals>.DFHF'> ********
method = DFHF-ROKS-ROHF-RHF
initial guess = minao
damping factor = 0
level_shift factor = 0
DIIS = <class 'pyscf.scf.diis.CDIIS'>
diis_start_cycle = 1
diis_space = 8
SCF conv_tol = 1e-09
SCF conv_tol_grad = None
SCF max_cycles = 50
direct_scf = False
chkfile to save SCF result = FeCO6-spherical.chk
max_memory 4000 MB (current use 83 MB)
num. doubly occ = 35  num. singly occ = 4
XC functionals = b3lyp
radial grids: 
    Treutler-Ahlrichs (JCP 102, 346 (M4)) radial grids
    
becke partition: Becke, JCP, 88, 2547 (1988)
pruning grids: <function nwchem_prune at 0x151641bb32f0>
grids dens level: 3
symmetrized grids: False
atomic radii adjust function: <function treutler_atomic_radii_adjust at 0x151641bb3268>
Set gradient conv threshold to 3.16228e-05
cond(S) = 4491.742439239065
atom Fe rad-grids = 90, ang-grids = [ 50  50  50  50  50  50  50  50  50  50  50  50  50  50  50  50  50  50
  50  50  50  50  50  50  50  50  50  50  50  50  86  86  86  86  86  86
  86  86  86  86  86  86  86  86  86  86 350 350 350 350 350 350 350 350
 350 350 350 434 434 434 434 434 434 434 434 434 434 434 434 434 434 434
 434 434 434 434 434 434 350 350 350 350 350 350 350 350 350 350 350 350]
atom C rad-grids = 75, ang-grids = [ 50  50  50  50  50  50  50  50  50  50  50  50  50  50  50  50  50  50
  50  50  50  50  50  86  86  86  86  86  86  86  86  86  86 266 266 266
 266 266 266 266 302 302 302 302 302 302 302 302 302 302 302 302 302 302
 302 302 302 302 302 302 266 266 266 266 266 266 266 266 266 266 266 266
 266 266 266]
atom O rad-grids = 75, ang-grids = [ 50  50  50  50  50  50  50  50  50  50  50  50  50  50  50  50  50  50
  50  50  50  50  86  86  86  86  86  86  86  86  86 266 266 266 266 266
 266 266 302 302 302 302 302 302 302 302 302 302 302 302 302 302 302 302
 302 302 302 266 266 266 266 266 266 266 266 266 266 266 266 266 266 266
 266 266 266]
tot grids = 189024
Drop grids 17150
    CPU time for setting up grids      6.99 sec, wall time      0.89 sec
nelec by numeric integration = [39.00000842 35.0000069 ]
    CPU time for vxc     27.38 sec, wall time      3.60 sec
******** <class 'pyscf.df.df.DF'> ********
auxbasis = None
max_memory = 4000
_cderi_to_save = /home/abenali/Work/Development/QMCPACK-Benali/qmcpack/tests/molecules/FeCO6_b3lyp_pyscf/pyscf/tmpbornkip7
Even tempered Gaussians are generated as DF auxbasis for  O C Fe
  ETB auxbasis for O  [[0, [16.044288, 1]], [0, [8.022144, 1]], [0, [4.011072, 1]], [0, [2.005536, 1]], [0, [1.002768, 1]], [0, [0.501384, 1]], [0, [0.250692, 1]], [1, [26.20554213846163, 1]], [1, [13.102771069230815, 1]], [1, [6.551385534615408, 1]], [1, [3.275692767307704, 1]], [1, [1.637846383653852, 1]], [1, [0.818923191826926, 1]], [1, [0.409461595913463, 1]], [1, [0.2047307979567315, 1]], [2, [21.401088, 1]], [2, [10.700544, 1]], [2, [5.350272, 1]], [2, [2.675136, 1]], [2, [1.337568, 1]], [2, [0.668784, 1]], [2, [0.334392, 1]], [2, [0.167196, 1]], [3, [7.569571782318998, 1]], [3, [3.784785891159499, 1]], [3, [1.8923929455797495, 1]], [3, [0.9461964727898747, 1]], [3, [0.47309823639493737, 1]], [4, [5.35472, 1]], [4, [2.67736, 1]], [4, [1.33868, 1]]]
  ETB auxbasis for C  [[0, [13.144064, 1]], [0, [6.572032, 1]], [0, [3.286016, 1]], [0, [1.643008, 1]], [0, [0.821504, 1]], [0, [0.410752, 1]], [0, [0.205376, 1]], [0, [0.102688, 1]], [1, [9.926079917263612, 1]], [1, [4.963039958631806, 1]], [1, [2.481519979315903, 1]], [1, [1.2407599896579515, 1]], [1, [0.6203799948289758, 1]], [1, [0.3101899974144879, 1]], [1, [0.15509499870724394, 1]], [1, [0.07754749935362197, 1]], [2, [14.991872, 1]], [2, [7.495936, 1]], [2, [3.747968, 1]], [2, [1.873984, 1]], [2, [0.936992, 1]], [2, [0.468496, 1]], [2, [0.234248, 1]], [2, [0.117124, 1]], [2, [0.058562, 1]], [3, [3.1431232676406444, 1]], [3, [1.5715616338203222, 1]], [3, [0.7857808169101611, 1]], [3, [0.39289040845508055, 1]], [3, [0.19644520422754028, 1]], [4, [2.635888, 1]], [4, [1.317944, 1]], [4, [0.658972, 1]]]
  ETB auxbasis for Fe  [[0, [35.84, 1]], [0, [17.92, 1]], [0, [8.96, 1]], [0, [4.48, 1]], [0, [2.24, 1]], [0, [1.12, 1]], [0, [0.56, 1]], [0, [0.28, 1]], [0, [0.14, 1]], [0, [0.07, 1]], [0, [0.035, 1]], [1, [21.947428095337276, 1]], [1, [10.973714047668638, 1]], [1, [5.486857023834319, 1]], [1, [2.7434285119171595, 1]], [1, [1.3717142559585798, 1]], [1, [0.6858571279792899, 1]], [1, [0.34292856398964494, 1]], [1, [0.17146428199482247, 1]], [1, [0.08573214099741124, 1]], [2, [32.623682195607536, 1]], [2, [16.311841097803768, 1]], [2, [8.155920548901884, 1]], [2, [4.077960274450942, 1]], [2, [2.038980137225471, 1]], [2, [1.0194900686127355, 1]], [2, [0.5097450343063678, 1]], [2, [0.2548725171531839, 1]], [2, [0.12743625857659194, 1]], [2, [0.06371812928829597, 1]], [3, [19.97784372748971, 1]], [3, [9.988921863744855, 1]], [3, [4.994460931872427, 1]], [3, [2.4972304659362137, 1]], [3, [1.2486152329681068, 1]], [3, [0.6243076164840534, 1]], [3, [0.3121538082420267, 1]], [3, [0.15607690412101335, 1]], [4, [14.848, 1]], [4, [7.424, 1]], [4, [3.712, 1]], [4, [1.856, 1]], [4, [0.928, 1]], [4, [0.464, 1]], [4, [0.232, 1]], [4, [0.116, 1]], [5, [8.922412932833808, 1]], [5, [4.461206466416904, 1]], [5, [2.230603233208452, 1]], [5, [1.115301616604226, 1]], [5, [0.557650808302113, 1]], [6, [10.723256, 1]], [6, [5.361628, 1]], [6, [2.680814, 1]]]
num shells = 438, num cGTOs = 1942
size of aux basis 1942
    CPU time for 2c2e      0.14 sec, wall time      0.02 sec
    CPU time for Cholesky 2c2e      1.53 sec, wall time      0.26 sec
erifile 1315.371 MB, IO buf size 255.98667 MB
int3c2e [1/6], AO [0:47], nrow = 16471
    CPU time for gen CD eri [1/6]     10.21 sec, wall time      6.55 sec
int3c2e [2/6], AO [47:70], nrow = 15914
    CPU time for gen CD eri [2/6]      9.72 sec, wall time      6.18 sec
int3c2e [3/6], AO [70:88], nrow = 16443
    CPU time for gen CD eri [3/6]      9.84 sec, wall time      6.27 sec
int3c2e [4/6], AO [88:103], nrow = 15792
    CPU time for gen CD eri [4/6]      9.72 sec, wall time      5.99 sec
int3c2e [5/6], AO [103:115], nrow = 15180
    CPU time for gen CD eri [5/6]      8.82 sec, wall time      5.72 sec
int3c2e [6/6], AO [115:117], nrow = 4866
    CPU time for gen CD eri [6/6]      3.46 sec, wall time      1.80 sec
    CPU time for generate (ij|L) 1 pass     53.49 sec, wall time     32.93 sec
    CPU time for step 2 [1/5], [0,0:446], row = 446      0.38 sec, wall time      0.38 sec
    CPU time for step 2 [2/5], [0,446:892], row = 446      0.31 sec, wall time      0.31 sec
    CPU time for step 2 [3/5], [0,892:1338], row = 446      0.31 sec, wall time      0.31 sec
    CPU time for step 2 [4/5], [0,1338:1784], row = 446      0.29 sec, wall time      0.29 sec
    CPU time for step 2 [5/5], [0,1784:1942], row = 158      0.10 sec, wall time      0.10 sec
    CPU time for cholesky_eri     55.13 sec, wall time     34.85 sec
    CPU time for vj and vk    129.86 sec, wall time     45.22 sec
E1 = -1241.467981395931  Ecoul = 608.8214561858158  Exc = -43.34477193968797
init E= -253.560805433856
    CPU time for initialize scf    186.87 sec, wall time     52.60 sec
  HOMO = -0.556620426033202  LUMO = -0.398729764844547
                  Roothaan           | alpha              | beta
  Highest 2-occ = -0.682005357965458 | -0.719861799438662 | -0.644148916484214
  Lowest 0-occ =  -0.398729764844547 | -0.403726993039155 | -0.393732574488014
  1-occ =         -0.628272445994383 |  -0.78571926803944 | -0.470825547099265
  1-occ =         -0.625331175794328 |  -0.78424966489429 | -0.466412615261979
  1-occ =         -0.581550995641739 | -0.731802133937158 | -0.431299720965212
  1-occ =         -0.556620426033202 | -0.715174092325321 |  -0.39806663949384
  Roothaan mo_energy =
[-3.90454897e+00 -2.65065540e+00 -2.61892387e+00 -2.61840555e+00
 -1.49618477e+00 -1.49607036e+00 -1.49604713e+00 -1.49598945e+00
 -1.49435696e+00 -1.49434326e+00 -9.17690181e-01 -9.00105192e-01
 -9.00063030e-01 -8.98822478e-01 -8.97634330e-01 -8.96566515e-01
 -8.33786138e-01 -8.14445442e-01 -8.14236035e-01 -8.13910564e-01
 -8.13834049e-01 -8.13748953e-01 -8.13478448e-01 -8.09333408e-01
 -8.08567377e-01 -8.08561707e-01 -8.07172486e-01 -8.06265693e-01
 -8.06222987e-01 -7.76740249e-01 -7.76632007e-01 -7.75349761e-01
 -7.74914487e-01 -7.73731099e-01 -6.82005358e-01 -6.28272446e-01
 -6.25331176e-01 -5.81550996e-01 -5.56620426e-01 -3.98729765e-01
 -3.98398743e-01 -3.96770998e-01 -3.87941874e-01 -3.85923370e-01
 -3.85620066e-01 -3.59787271e-01 -3.59205027e-01 -3.58724084e-01
 -3.32639030e-01 -3.30953483e-01 -3.30684951e-01 -2.95179218e-01
 -2.27012491e-01 -1.66948266e-01 -1.65158466e-01 -1.62677968e-01
 -1.53284891e-01 -1.52971950e-01 -1.44431887e-01 -1.44328868e-01
 -1.43924034e-01 -1.02579823e-01 -9.42500141e-02 -9.20640256e-02
  6.29117259e-03  6.94962012e-03  1.00972404e-02  2.52549729e-02
  2.58796393e-02  2.60730520e-02  2.66307407e-02  2.73932001e-02
  2.91565770e-02  1.12570502e-01  1.14145218e-01  1.14383581e-01
  1.30084102e-01  1.31100837e-01  1.31779142e-01  1.63975972e-01
  1.67651336e-01  1.67711916e-01  1.69761594e-01  1.79615274e-01
  1.81380754e-01  1.85812649e-01  1.87894141e-01  1.88247726e-01
  2.25869189e-01  2.27135844e-01  2.29129926e-01  2.31873521e-01
  2.31877130e-01  2.33317504e-01  2.50020276e-01  2.51718577e-01
  2.52268692e-01  3.04003332e-01  3.04545664e-01  3.05075051e-01
  3.06394651e-01  3.09104537e-01  3.10629025e-01  3.12552050e-01
  3.43886002e-01  3.47074253e-01  3.95196290e-01  4.04155214e-01
  4.04394168e-01  4.06663757e-01  4.22076789e-01  4.28039896e-01
  4.28108162e-01  4.31891696e-01  4.32532356e-01  4.33972887e-01
  4.34232861e-01  4.37196484e-01  4.38402934e-01  4.98703999e-01
  5.04456497e-01  5.16951827e-01  5.19992529e-01  5.31970535e-01
  5.34565411e-01  5.37007946e-01  5.37141107e-01  5.40469034e-01
  5.53425936e-01  5.55927608e-01  6.40641025e-01  6.50751256e-01
  6.51905192e-01  8.03852112e-01  8.06600605e-01  8.09863001e-01
  8.10943769e-01  8.20836751e-01  8.93899460e-01  9.26546577e-01
  9.33290251e-01  9.34840551e-01  9.85264470e-01  9.86324351e-01
  9.86895509e-01  1.00787957e+00  1.01181372e+00  1.21499340e+00
  1.24163080e+00  1.24339868e+00  1.24762770e+00  1.24891775e+00
  1.25004382e+00  1.25007586e+00  1.25070306e+00  1.25078567e+00
  1.25085642e+00  1.25163679e+00  1.26533625e+00  1.30715236e+00
  1.31631517e+00  1.33240936e+00  1.33607782e+00  1.62344502e+00
  1.62369434e+00  1.62560761e+00  1.64103829e+00  1.64479648e+00
  1.64994166e+00  1.68265413e+00  1.68908554e+00  1.68957704e+00
  1.69069121e+00  1.69155869e+00  1.69498180e+00  1.70299075e+00
  1.70663527e+00  1.72175639e+00  1.72474814e+00  1.72622538e+00
  1.72764282e+00  1.73497328e+00  1.73750471e+00  1.73923909e+00
  1.75132990e+00  1.75935424e+00  1.76120407e+00  1.76734160e+00
  1.76767691e+00  1.76770857e+00  1.82486419e+00  1.83235051e+00
  1.83307556e+00  1.94261199e+00  1.97488187e+00  2.13162064e+00
  2.16643134e+00  2.16885258e+00  2.17008624e+00  2.17133213e+00
  2.17253842e+00  2.32560646e+00  2.32623819e+00  2.32637195e+00
  2.32968245e+00  2.33049473e+00  2.33059959e+00  2.33700179e+00
  2.33772827e+00  2.33840278e+00  2.34270171e+00  2.34356557e+00
  2.34413760e+00  2.41520523e+00  2.49791063e+00  2.49901037e+00
  2.50052320e+00  2.50372609e+00  2.51767668e+00  2.51853978e+00
  2.52334684e+00  2.52341068e+00  2.52559964e+00  2.52578959e+00
  2.54499668e+00  2.54543546e+00  2.60208335e+00  2.60319242e+00
  2.60519939e+00  2.62579804e+00  2.62615265e+00  2.62694869e+00
  2.63051539e+00  2.63123585e+00  2.63222571e+00  2.64291762e+00
  2.68872956e+00  2.69106504e+00  2.69159008e+00  2.69263301e+00
  2.69312544e+00  2.70029748e+00  2.70036723e+00  2.70046832e+00
  2.70066414e+00  2.70081126e+00  2.70144093e+00  2.71459815e+00
  2.71870128e+00  2.72236568e+00  2.72296840e+00  2.72407491e+00
  2.72407784e+00  2.74272500e+00  2.76945538e+00  2.77315042e+00
  2.77647700e+00  2.79701822e+00  2.80173388e+00  2.80706381e+00
  2.81573571e+00  2.81694722e+00  2.90978523e+00  2.91132194e+00
  2.93606523e+00  2.95079515e+00  2.95474167e+00  3.05501593e+00
  3.06285343e+00  3.06741313e+00  3.08431867e+00  3.12033384e+00
  3.16410192e+00  3.16638842e+00  3.18701131e+00  3.26378593e+00
  3.27324992e+00  3.28081944e+00  3.37265419e+00  3.38884793e+00
  3.46192600e+00  3.46465590e+00  3.46589527e+00  3.48941785e+00
  3.49777396e+00  3.50272176e+00  3.50323320e+00  3.50520457e+00
  3.50537172e+00  3.54059956e+00  3.54146910e+00  3.54178208e+00
  3.73978497e+00  3.76281689e+00  3.76740371e+00  3.88989817e+00
  3.96209145e+00  3.96430056e+00  3.97227555e+00  4.03151314e+00
  4.04002499e+00  4.04125558e+00  4.17318482e+00  4.18214712e+00
  4.19461992e+00  4.74095763e+00  4.74108661e+00  4.74116652e+00
  4.74119935e+00  4.74122470e+00  4.74123687e+00  4.74124146e+00
  4.74175323e+00  4.74253176e+00  4.74253722e+00  4.74280106e+00
  4.74282266e+00  5.13352796e+00  5.14322726e+00  5.16069265e+00
  5.16170084e+00  5.16210930e+00  5.16259180e+00  5.16268432e+00
  5.16346880e+00  5.16372797e+00  5.16574144e+00  5.16705059e+00
  5.16751356e+00  5.31849610e+00  5.35786789e+00  5.91365559e+00
  5.92106870e+00  5.92677145e+00  5.96991352e+00  5.97007739e+00
  5.97028844e+00  5.97559948e+00  5.97587768e+00  5.97610168e+00
  6.00785776e+00  6.01262353e+00  6.01382286e+00  6.02622256e+00
  6.02827923e+00  6.02828863e+00  6.02985005e+00  6.03216023e+00
  6.04186694e+00  6.06408945e+00  6.06701599e+00  6.07089276e+00
  6.08294542e+00  6.09486499e+00  6.10075104e+00  6.10079309e+00
  6.10114294e+00  6.10204101e+00  6.10267869e+00  6.10273497e+00
  6.10413763e+00  6.10444402e+00  6.10548776e+00  6.10656314e+00
  6.10656571e+00  6.34607094e+00  6.37830931e+00  6.58846847e+00
  6.58863850e+00  6.58885375e+00  6.59142638e+00  6.59187610e+00
  6.59442527e+00  6.61696938e+00  6.61732297e+00  6.61866362e+00
  6.62518593e+00  6.62725923e+00  6.62744253e+00  6.86493490e+00
  6.86543363e+00  6.86605506e+00  6.86608129e+00  6.87518876e+00
  6.87912345e+00  9.35455406e+00  1.06405133e+01  1.06517818e+01
  1.06609292e+01  1.06799807e+01  1.06903349e+01  1.07935853e+01
  1.08214736e+01  1.08360175e+01  1.11842551e+01  1.15467858e+01
  1.15512952e+01  1.15613779e+01  1.15848500e+01  1.16763469e+01
  1.16867767e+01  1.17046070e+01  1.33640592e+01  1.33649864e+01
  1.33657118e+01  1.33731651e+01  1.33818826e+01  1.33878029e+01
  1.33895886e+01  1.34064761e+01  1.34135503e+01]
nelec by numeric integration = [39.00000842 35.0000069 ]
    CPU time for vxc     19.87 sec, wall time      2.56 sec
    CPU time for vj and vk     10.40 sec, wall time      1.33 sec
E1 = -1241.4680006615094  Ecoul = 608.8214780622881  Exc = -43.34477455058236
cycle= 1 E= -253.560805433857  delta_E= -5.68e-13  |g|= 3.1e-06  |ddm|= 2.57e-06
    CPU time for cycle= 1     32.18 sec, wall time      4.13 sec
  HOMO = -0.556619216314053  LUMO = -0.398729762443941
                  Roothaan           | alpha              | beta
  Highest 2-occ = -0.682004263218921 | -0.719860676568171 | -0.644147849862087
  Lowest 0-occ =  -0.398729762443941 | -0.403726972691814 | -0.393732446366655
  1-occ =         -0.628271226084526 | -0.785718134253233 | -0.470824531960437
  1-occ =         -0.625329949851159 | -0.784248501353726 | -0.466411597133619
  1-occ =         -0.581549808491218 | -0.731801266586031 | -0.431298727510995
  1-occ =         -0.556619216314053 | -0.715173142816469 |  -0.39806562400441
  Roothaan mo_energy =
[-3.90454748e+00 -2.65065397e+00 -2.61892242e+00 -2.61840410e+00
 -1.49618467e+00 -1.49607023e+00 -1.49604707e+00 -1.49598936e+00
 -1.49435703e+00 -1.49434334e+00 -9.17690146e-01 -9.00105090e-01
 -9.00062870e-01 -8.98822522e-01 -8.97634189e-01 -8.96566497e-01
 -8.33786084e-01 -8.14445411e-01 -8.14235953e-01 -8.13910491e-01
 -8.13834018e-01 -8.13748929e-01 -8.13478426e-01 -8.09333319e-01
 -8.08567371e-01 -8.08561717e-01 -8.07172394e-01 -8.06265684e-01
 -8.06222991e-01 -7.76740283e-01 -7.76632042e-01 -7.75349798e-01
 -7.74914491e-01 -7.73731116e-01 -6.82004263e-01 -6.28271226e-01
 -6.25329950e-01 -5.81549808e-01 -5.56619216e-01 -3.98729762e-01
 -3.98398755e-01 -3.96770954e-01 -3.87941912e-01 -3.85923411e-01
 -3.85620087e-01 -3.59787306e-01 -3.59205078e-01 -3.58724136e-01
 -3.32639080e-01 -3.30953543e-01 -3.30685012e-01 -2.95179090e-01
 -2.27012472e-01 -1.66948205e-01 -1.65158425e-01 -1.62677951e-01
 -1.53284910e-01 -1.52971980e-01 -1.44431935e-01 -1.44328919e-01
 -1.43924087e-01 -1.02579819e-01 -9.42499902e-02 -9.20639909e-02
  6.29118090e-03  6.94958123e-03  1.00972241e-02  2.52549835e-02
  2.58795790e-02  2.60730667e-02  2.66306798e-02  2.73931473e-02
  2.91565722e-02  1.12570508e-01  1.14145202e-01  1.14383557e-01
  1.30084112e-01  1.31100870e-01  1.31779164e-01  1.63976016e-01
  1.67651344e-01  1.67711952e-01  1.69761629e-01  1.79615340e-01
  1.81380782e-01  1.85812699e-01  1.87894185e-01  1.88247756e-01
  2.25869199e-01  2.27135878e-01  2.29129906e-01  2.31873514e-01
  2.31877111e-01  2.33317515e-01  2.50020284e-01  2.51718503e-01
  2.52268681e-01  3.04003328e-01  3.04545669e-01  3.05075062e-01
  3.06394706e-01  3.09104608e-01  3.10629084e-01  3.12552073e-01
  3.43885920e-01  3.47074184e-01  3.95196252e-01  4.04155193e-01
  4.04394141e-01  4.06663715e-01  4.22076757e-01  4.28039897e-01
  4.28108105e-01  4.31891646e-01  4.32532365e-01  4.33972849e-01
  4.34232809e-01  4.37196433e-01  4.38403004e-01  4.98703977e-01
  5.04456575e-01  5.16951850e-01  5.19992529e-01  5.31970632e-01
  5.34565377e-01  5.37008038e-01  5.37141122e-01  5.40469055e-01
  5.53425892e-01  5.55927559e-01  6.40640990e-01  6.50751219e-01
  6.51905158e-01  8.03852288e-01  8.06600617e-01  8.09862963e-01
  8.10943779e-01  8.20836926e-01  8.93899479e-01  9.26546764e-01
  9.33290446e-01  9.34840738e-01  9.85264503e-01  9.86324364e-01
  9.86895552e-01  1.00787966e+00  1.01181373e+00  1.21499345e+00
  1.24163089e+00  1.24339868e+00  1.24762779e+00  1.24891785e+00
  1.25004392e+00  1.25007585e+00  1.25070306e+00  1.25078562e+00
  1.25085650e+00  1.25163683e+00  1.26533629e+00  1.30715244e+00
  1.31631525e+00  1.33240957e+00  1.33607790e+00  1.62344507e+00
  1.62369435e+00  1.62560761e+00  1.64103817e+00  1.64479633e+00
  1.64994156e+00  1.68265420e+00  1.68908558e+00  1.68957705e+00
  1.69069111e+00  1.69155857e+00  1.69498170e+00  1.70299084e+00
  1.70663532e+00  1.72175649e+00  1.72474818e+00  1.72622543e+00
  1.72764284e+00  1.73497336e+00  1.73750475e+00  1.73923912e+00
  1.75132998e+00  1.75935432e+00  1.76120403e+00  1.76734147e+00
  1.76767680e+00  1.76770845e+00  1.82486403e+00  1.83235039e+00
  1.83307546e+00  1.94261224e+00  1.97488210e+00  2.13162064e+00
  2.16643128e+00  2.16885252e+00  2.17008617e+00  2.17133206e+00
  2.17253836e+00  2.32560631e+00  2.32623807e+00  2.32637184e+00
  2.32968231e+00  2.33049461e+00  2.33059947e+00  2.33700165e+00
  2.33772816e+00  2.33840267e+00  2.34270157e+00  2.34356547e+00
  2.34413750e+00  2.41520520e+00  2.49791060e+00  2.49901031e+00
  2.50052314e+00  2.50372601e+00  2.51767660e+00  2.51853971e+00
  2.52334676e+00  2.52341060e+00  2.52559956e+00  2.52578953e+00
  2.54499661e+00  2.54543537e+00  2.60208330e+00  2.60319243e+00
  2.60519932e+00  2.62579805e+00  2.62615269e+00  2.62694870e+00
  2.63051524e+00  2.63123596e+00  2.63222580e+00  2.64291767e+00
  2.68872936e+00  2.69106507e+00  2.69158995e+00  2.69263300e+00
  2.69312541e+00  2.70029753e+00  2.70036721e+00  2.70046832e+00
  2.70066410e+00  2.70081121e+00  2.70144088e+00  2.71459819e+00
  2.71870132e+00  2.72236575e+00  2.72296826e+00  2.72407477e+00
  2.72407779e+00  2.74272483e+00  2.76945526e+00  2.77315029e+00
  2.77647695e+00  2.79701812e+00  2.80173372e+00  2.80706372e+00
  2.81573563e+00  2.81694714e+00  2.90978519e+00  2.91132194e+00
  2.93606526e+00  2.95079515e+00  2.95474167e+00  3.05501617e+00
  3.06285373e+00  3.06741333e+00  3.08431872e+00  3.12033474e+00
  3.16410276e+00  3.16638926e+00  3.18701215e+00  3.26378654e+00
  3.27325053e+00  3.28082001e+00  3.37265415e+00  3.38884791e+00
  3.46192600e+00  3.46465587e+00  3.46589524e+00  3.48941796e+00
  3.49777406e+00  3.50272175e+00  3.50323335e+00  3.50520460e+00
  3.50537170e+00  3.54059958e+00  3.54146909e+00  3.54178206e+00
  3.73978525e+00  3.76281718e+00  3.76740398e+00  3.88989822e+00
  3.96209159e+00  3.96430074e+00  3.97227560e+00  4.03151328e+00
  4.04002505e+00  4.04125573e+00  4.17318582e+00  4.18214813e+00
  4.19462092e+00  4.74095782e+00  4.74108679e+00  4.74116669e+00
  4.74119955e+00  4.74122484e+00  4.74123708e+00  4.74124165e+00
  4.74175341e+00  4.74253171e+00  4.74253718e+00  4.74280103e+00
  4.74282263e+00  5.13352813e+00  5.14322750e+00  5.16069273e+00
  5.16170098e+00  5.16210937e+00  5.16259191e+00  5.16268451e+00
  5.16346874e+00  5.16372800e+00  5.16574159e+00  5.16705075e+00
  5.16751350e+00  5.31849672e+00  5.35786855e+00  5.91365564e+00
  5.92106876e+00  5.92677148e+00  5.96991355e+00  5.97007752e+00
  5.97028849e+00  5.97559962e+00  5.97587770e+00  5.97610174e+00
  6.00785788e+00  6.01262357e+00  6.01382289e+00  6.02622254e+00
  6.02827917e+00  6.02828857e+00  6.02985000e+00  6.03216016e+00
  6.04186691e+00  6.06408953e+00  6.06701607e+00  6.07089281e+00
  6.08294553e+00  6.09486519e+00  6.10075132e+00  6.10079337e+00
  6.10114306e+00  6.10204105e+00  6.10267896e+00  6.10273527e+00
  6.10413759e+00  6.10444430e+00  6.10548804e+00  6.10656327e+00
  6.10656567e+00  6.34607128e+00  6.37830961e+00  6.58846871e+00
  6.58863861e+00  6.58885385e+00  6.59142648e+00  6.59187633e+00
  6.59442537e+00  6.61696947e+00  6.61732320e+00  6.61866371e+00
  6.62518616e+00  6.62725934e+00  6.62744259e+00  6.86493509e+00
  6.86543384e+00  6.86605501e+00  6.86608141e+00  6.87518897e+00
  6.87912350e+00  9.35455495e+00  1.06405134e+01  1.06517820e+01
  1.06609294e+01  1.06799809e+01  1.06903349e+01  1.07935867e+01
  1.08214750e+01  1.08360190e+01  1.11842555e+01  1.15467874e+01
  1.15512968e+01  1.15613795e+01  1.15848517e+01  1.16763485e+01
  1.16867783e+01  1.17046086e+01  1.33640606e+01  1.33649879e+01
  1.33657132e+01  1.33731665e+01  1.33818840e+01  1.33878043e+01
  1.33895900e+01  1.34064776e+01  1.34135517e+01]
nelec by numeric integration = [39.00000842 35.0000069 ]
    CPU time for vxc     19.92 sec, wall time      2.57 sec
    CPU time for vj and vk     10.42 sec, wall time      1.33 sec
E1 = -1241.4679467269534  Ecoul = 608.8214173021705  Exc = -43.344767725007735
Extra cycle  E= -253.560805433844  delta_E= 1.31e-11  |g|= 8.3e-06  |ddm|= 6.77e-06
    CPU time for scf_cycle    250.78 sec, wall time     60.80 sec
    CPU time for SCF    251.52 sec, wall time     60.92 sec
converged SCF energy = -253.560805433844
Using Python 3.x
Wavefunction successfully saved to QMCPACK HDF5 Format
Use: "convert4qmc -pyscf  FeCO6.h5" to generate QMCPACK input files
