#INFO: **** input file is /home/abenali/Work/Development/Periodic-LCAO/PYSCF/FeCO6/Cartesian/B3LYP/FeCO6.py ****
#!/usr/bin/env python

'''
Gamma point Hartree-Fock/DFT
The 2-electron integrals are computed using Poisson solver with FFT by default.
In most scenario, it should be used with pseudo potential.
'''

# Note import path which is different to molecule code
#from pyscf.pbc import gto, scf, df, dft
from pyscf import gto, dft
import  numpy





cell = gto.M(
   atom ='''
             Fe    0.0000013   -0.0000001   -0.0000001
             C     0.0000037   -0.0072194    2.3405884
             O    -0.0000299   -0.0415619    3.4549199
             C     2.3029923   -0.0000137   -0.0000135
             O     3.4182461   -0.0000170   -0.0000168
             C    -2.3029877    0.0000133    0.0000131
             O    -3.4182415    0.0000167    0.0000165
             C    -0.0000019    0.0072196   -2.3405883
             O     0.0000250    0.0415622   -3.4549197
             C    -0.0000028   -2.3369861    0.0065791
             O     0.0000240   -3.4513475    0.0412328
             C     0.0000037    2.3369862   -0.0065788
             O    -0.0000326    3.4513476   -0.0412324
''',
   basis ='bfd-vtz',
   ecp='bfd',
   unit="angstrom",
   spin=4,
   verbose = 5,
   cart=True,
)




#mf = dft.RKS(cell).density_fit()
mf = dft.RKS(cell)
mf.xc = 'b3lyp'
mf.kernel()

title='FeCO6'


from PyscfToQmcpack import savetoqmcpack
savetoqmcpack(cell,mf,title)
#INFO: ******************** input file end ********************


System: ('Linux', 'abenali', '4.4.0-108-generic', '#131-Ubuntu SMP Sun Jan 7 14:34:49 UTC 2018', 'x86_64', 'x86_64')  Threads 4
Python 2.7.12 (default, Nov 20 2017, 18:23:56) 
[GCC 5.4.0 20160609]
numpy 1.11.0  scipy 0.17.0
Date: Wed Jan 10 14:34:16 2018
PySCF version 1.4.2
PySCF path  /home/abenali/Work/src/pyscf/pyscf
GIT ORIG_HEAD 808f1d3b9cd2e8b16ca00c1700ac0bf6019f25ac
GIT HEAD      ref: refs/heads/master
GIT master branch  a2c75e9450d03175f956023c067213e9bf0d50e6

[INPUT] VERBOSE 5
[INPUT] num atoms = 13
[INPUT] num electrons = 76
[INPUT] charge = 0
[INPUT] spin (= nelec alpha-beta = 2S) = 4
[INPUT] symmetry False subgroup None
[INPUT] Cartesian GTO integrals (6d 10f)[INPUT]  1 Fe     0.000001300000  -0.000000100000  -0.000000100000 AA    0.000002456644  -0.000000188973  -0.000000188973 Bohr
[INPUT]  2 C      0.000003700000  -0.007219400000   2.340588400000 AA    0.000006991987  -0.013642688784   4.423071046334 Bohr
[INPUT]  3 O     -0.000029900000  -0.041561900000   3.454919900000 AA   -0.000056502811  -0.078540608217   6.528852393310 Bohr
[INPUT]  4 C      2.302992300000  -0.000013700000  -0.000013500000 AA    4.352024713982  -0.000025889248  -0.000025511303 Bohr
[INPUT]  5 O      3.418246100000  -0.000017000000  -0.000016800000 AA    6.459548955363  -0.000032125344  -0.000031747399 Bohr
[INPUT]  6 C     -2.302987700000   0.000013300000   0.000013100000 AA   -4.352016021242   0.000025133357   0.000024755412 Bohr
[INPUT]  7 O     -3.418241500000   0.000016700000   0.000016500000 AA   -6.459540262622   0.000031558426   0.000031180481 Bohr
[INPUT]  8 C     -0.000001900000   0.007219600000  -2.340588300000 AA   -0.000003590480   0.013643066729  -4.423070857361 Bohr
[INPUT]  9 O      0.000025000000   0.041562200000  -3.454919700000 AA    0.000047243153   0.078541175134  -6.528852015364 Bohr
[INPUT] 10 C     -0.000002800000  -2.336986100000   0.006579100000 AA   -0.000005291233  -4.416263685915   0.012432697146 Bohr
[INPUT] 11 O      0.000024000000  -3.451347500000   0.041232800000 AA    0.000045353427  -6.522101535702   0.077918699349 Bohr
[INPUT] 12 C      0.000003700000   2.336986200000  -0.006578800000 AA    0.000006991987   4.416263874888  -0.012432130228 Bohr
[INPUT] 13 O     -0.000032600000   3.451347600000  -0.041232400000 AA   -0.000061605072   6.522101724675  -0.077917943459 Bohr
[INPUT] ---------------- BASIS SET ---------------- 
[INPUT] l, kappa, [nprim/nctr], expnt,             c_1 c_2 ...
[INPUT] C
[INPUT] 0    0    [9    /1   ]  13.073594         -0.000705
                                6.541187          0.015176
                                3.272791          -0.121499
                                1.637494          -0.033512
                                0.819297          0.180113
                                0.409924          0.380369
                                0.2051            0.397529
                                0.102619          0.169852
                                0.051344          0.013991
[INPUT] 0    0    [1    /1   ]  0.921552             1
[INPUT] 0    0    [1    /1   ]  0.1328               1
[INPUT] 1    0    [9    /1   ]  7.480076          0.021931
                                3.741035          0.054425
                                1.871016          0.112024
                                0.935757          0.210979
                                0.468003          0.289868
                                0.234064          0.302667
                                0.117063          0.191634
                                0.058547          0.050426
                                0.029281          0.001787
[INPUT] 1    0    [1    /1   ]  0.126772             1
[INPUT] 1    0    [1    /1   ]  0.376742             1
[INPUT] 2    0    [1    /1   ]  0.329486             1
[INPUT] 2    0    [1    /1   ]  1.141611             1
[INPUT] 3    0    [1    /1   ]  0.773485             1
[INPUT] Fe
[INPUT] 0    0    [8    /4   ]  25.882657         -0.010318 0.000341 -0.030967 0.429968
                                14.037755         0.230364 -0.047646 -0.034192 -1.786544
                                9.007794          -0.566551 0.136465 0.383443 1.482641
                                2.06835           0.544437 -0.153371 -1.259192 2.684004
                                0.993498          0.540001 -0.288555 -0.098913 -6.15249
                                0.471151          0.143115 -0.044212 1.194321 4.806621
                                0.102489          0.007386 0.704768 0.555024 -2.134831
                                0.036902          0.001869 0.415407 -1.077563 0.805728
[INPUT] 0    0    [1    /1   ]  0.0175               1
[INPUT] 1    0    [7    /4   ]  16.659389         0.007223 -0.00556 0.008185 0.037533
                                10.450653         -0.070315 0.063506 -0.125348 0.089805
                                4.183289          0.229161 -0.276956 0.657186 -1.569597
                                2.117962          0.393199 -0.321479 0.505908 1.106861
                                1.064494          0.361596 -0.004808 -0.773757 1.129157
                                0.514743          0.154139 0.330833 -0.592779 -1.167998
                                0.210442          0.016498 0.357095 0.185315 -0.795499
[INPUT] 1    0    [1    /1   ]  0.105                1
[INPUT] 2    0    [6    /3   ]  10.232413         0.081591 -0.0865 -0.101424
                                4.841151          0.26319 -0.339738 -0.548492
                                2.039827          0.342856 -0.328882 -0.002091
                                0.840565          0.338326 0.130025 0.828457
                                0.328485          0.24073 0.494941 -0.088206
                                0.116926          0.088375 0.365933 -0.590958
[INPUT] 2    0    [1    /1   ]  0.058                1
[INPUT] 3    0    [1    /1   ]  1.340407             1
[INPUT] 3    0    [1    /1   ]  4.50241              1
[INPUT] 4    0    [1    /1   ]  3.599562             1
[INPUT] O
[INPUT] 0    0    [9    /1   ]  54.775216         -7.6e-05
                                25.616801         0.000407
                                11.980245         0.012024
                                5.602818          -0.128627
                                2.620277          0.019567
                                1.225429          0.295926
                                0.573098          0.453752
                                0.268022          0.304848
                                0.125346          0.055741
[INPUT] 0    0    [1    /1   ]  1.686633             1
[INPUT] 0    0    [1    /1   ]  0.237997             1
[INPUT] 1    0    [9    /1   ]  21.217318         0.004679
                                10.620108         0.039899
                                5.315785          0.082308
                                2.660761          0.161134
                                1.331816          0.242835
                                0.666627          0.281879
                                0.333673          0.255999
                                0.167017          0.150175
                                0.083598          0.044958
[INPUT] 1    0    [1    /1   ]  0.184696             1
[INPUT] 1    0    [1    /1   ]  0.600621             1
[INPUT] 2    0    [1    /1   ]  0.66934              1
[INPUT] 2    0    [1    /1   ]  2.404278             1
[INPUT] 3    0    [1    /1   ]  1.423104             1
nuclear repulsion = 422.430491715947
number of shells = 117
number of NR pGTOs = 902
number of NR cGTOs = 487
basis = bfd-vtz
ecp = bfd
CPU time:         0.40


******** <class 'pyscf.dft.roks.ROKS'> flags ********
method = ROKS
initial guess = minao
damping factor = 0
level shift factor = 0
DIIS = <class 'pyscf.scf.diis.CDIIS'>
DIIS start cycle = 1
DIIS space = 8
SCF tol = 1e-09
SCF gradient tol = None
max. SCF cycles = 50
direct_scf = True
direct_scf_tol = 1e-13
chkfile to save SCF result = /home/abenali/Work/Development/Periodic-LCAO/PYSCF/FeCO6/Cartesian/B3LYP/tmpLzIcxi
max_memory 4000 MB (current use 53 MB)
num. doubly occ = 36  num. singly occ = 4
XC functionals = b3lyp
radial grids: Treutler-Ahlrichs (JCP 102, 346 (M4)) radial grids
becke partition: Becke, JCP, 88, 2547 (1988)
pruning grids: <function nwchem_prune at 0x7f9595803b90>
grids dens level: 3
symmetrized grids: False
atomic radii adjust function: <function treutler_atomic_radii_adjust at 0x7f9595803a28>
Set gradient conv threshold to 3.16228e-05
cond(S) = 284634.230562
atom Fe rad-grids = 90, ang-grids = [ 50  50  50  50  50  50  50  50  50  50  50  50  50  50  50  50  50  50
  50  50  50  50  50  50  50  50  50  50  50  50  86  86  86  86  86  86
  86  86  86  86  86  86  86  86  86  86 350 350 350 350 350 350 350 350
 350 350 350 434 434 434 434 434 434 434 434 434 434 434 434 434 434 434
 434 434 434 434 434 434 350 350 350 350 350 350 350 350 350 350 350 350]
atom C rad-grids = 75, ang-grids = [ 50  50  50  50  50  50  50  50  50  50  50  50  50  50  50  50  50  50
  50  50  50  50  50  86  86  86  86  86  86  86  86  86  86 266 266 266
 266 266 266 266 302 302 302 302 302 302 302 302 302 302 302 302 302 302
 302 302 302 302 302 302 266 266 266 266 266 266 266 266 266 266 266 266
 266 266 266]
atom O rad-grids = 75, ang-grids = [ 50  50  50  50  50  50  50  50  50  50  50  50  50  50  50  50  50  50
  50  50  50  50  86  86  86  86  86  86  86  86  86 266 266 266 266 266
 266 266 302 302 302 302 302 302 302 302 302 302 302 302 302 302 302 302
 302 302 302 266 266 266 266 266 266 266 266 266 266 266 266 266 266 266
 266 266 266]
tot grids = 189024
Drop grids 18392
    CPU time for setting up grids     18.62 sec, wall time      3.12 sec
nelec by numeric integration = [ 38.00003409  38.00003409]
    CPU time for vxc     63.18 sec, wall time     12.23 sec
    CPU time for vj and vk     84.12 sec, wall time     21.01 sec
Ecoul = 626.759629747  Exc = -42.471003602
init E= -253.075791462765
    CPU time for initialize scf    362.28 sec, wall time     86.36 sec

WARN: HOMO -0.132737511046763 >= LUMO -0.13261472232534

                  Roothaan           | alpha              | beta
  Highest 2-occ =  -0.40969357605923 |  -0.40969357605923 |  -0.40969357605923
  Lowest 0-occ =   -0.13261472232534 |  -0.13261472232534 |  -0.13261472232534
  1-occ =         -0.409182710137109 | -0.409182710137109 | -0.409182710137109
  1-occ =         -0.326825426154578 | -0.326825426154578 | -0.326825426154578
  1-occ =         -0.323660350844966 | -0.323660350844966 | -0.323660350844966
  1-occ =         -0.132737511046763 | -0.132737511046763 | -0.132737511046763
  Roothaan mo_energy =
[ -3.71101112e+00  -2.42906447e+00  -2.42872004e+00  -2.42867465e+00
  -1.31925370e+00  -1.31766517e+00  -1.31760673e+00  -1.31755359e+00
  -1.31734926e+00  -1.31727074e+00  -6.68356443e-01  -6.55652989e-01
  -6.55315581e-01  -6.55206032e-01  -6.54199914e-01  -6.54004364e-01
  -5.51391383e-01  -5.51373661e-01  -5.51321699e-01  -5.49861427e-01
  -5.49573453e-01  -5.49481661e-01  -5.48338079e-01  -5.47589437e-01
  -5.47508279e-01  -5.47452045e-01  -5.45898930e-01  -5.45848679e-01
  -5.45841321e-01  -4.85507975e-01  -4.82212200e-01  -4.56995994e-01
  -4.53695065e-01  -4.53316975e-01  -4.09759627e-01  -4.09693576e-01
  -4.09182710e-01  -3.26825426e-01  -3.23660351e-01  -1.32737511e-01
  -1.32614722e-01  -1.31815621e-01  -1.19186333e-01  -1.16825204e-01
  -1.16139010e-01  -9.50103389e-02  -9.48469321e-02  -9.47398932e-02
  -7.01476624e-02  -6.97806868e-02  -6.97385188e-02  -3.34317087e-02
   2.31983689e-02   1.01137296e-01   1.02405218e-01   1.02585754e-01
   1.10402294e-01   1.10473400e-01   1.28422365e-01   1.29453782e-01
   1.30047312e-01   1.34396068e-01   1.85380251e-01   1.90652958e-01
   1.93825550e-01   2.65046092e-01   2.67157249e-01   2.69616138e-01
   2.69889701e-01   2.72153834e-01   2.96569698e-01   2.96924911e-01
   2.97742816e-01   3.06776514e-01   3.57292342e-01   3.58364372e-01
   3.58488351e-01   3.65971441e-01   3.68099342e-01   3.71231288e-01
   4.01982521e-01   4.03250100e-01   4.06152427e-01   4.07530139e-01
   4.08047986e-01   4.33258332e-01   4.35445739e-01   4.36839267e-01
   4.73669501e-01   4.75983993e-01   4.78884393e-01   4.78916338e-01
   4.80577212e-01   4.83014576e-01   5.03685217e-01   5.04138013e-01
   5.06845439e-01   5.51252796e-01   5.51729786e-01   5.52553870e-01
   5.69422791e-01   5.69789225e-01   5.70350819e-01   5.72684623e-01
   5.90733499e-01   5.94591295e-01   5.96692648e-01   6.57173772e-01
   6.60288369e-01   6.60511940e-01   6.60866782e-01   6.62858183e-01
   6.73162992e-01   7.16517513e-01   7.25277302e-01   7.27631925e-01
   7.28374310e-01   7.30282191e-01   7.33027089e-01   7.33768288e-01
   7.41191503e-01   7.49864986e-01   7.50874881e-01   7.59573380e-01
   7.68488506e-01   7.73864311e-01   8.28934457e-01   8.32651897e-01
   8.32740853e-01   8.39126080e-01   8.42445891e-01   9.39650007e-01
   9.42744965e-01   9.48135969e-01   9.48211787e-01   9.48983231e-01
   9.49842808e-01   1.03731623e+00   1.04813346e+00   1.05706392e+00
   1.11079577e+00   1.11436138e+00   1.13855623e+00   1.14132234e+00
   1.14168979e+00   1.18601375e+00   1.19173432e+00   1.19427321e+00
   1.22377748e+00   1.27435652e+00   1.27543165e+00   1.32860209e+00
   1.33162135e+00   1.33789854e+00   1.47724620e+00   1.47920361e+00
   1.48852486e+00   1.48882013e+00   1.49001065e+00   1.49775507e+00
   1.50089458e+00   1.50662768e+00   1.50826324e+00   1.51269135e+00
   1.51312236e+00   1.51324772e+00   1.53083326e+00   1.57867076e+00
   1.58228601e+00   1.58828975e+00   1.60309425e+00   1.60588907e+00
   1.60736643e+00   1.60909763e+00   1.61046493e+00   1.61831755e+00
   1.67254652e+00   1.67432231e+00   1.67456196e+00   1.81057178e+00
   1.82440987e+00   1.83120448e+00   1.83240812e+00   1.83375780e+00
   1.83706760e+00   1.84007730e+00   1.86538209e+00   1.86620063e+00
   1.86746376e+00   1.90072909e+00   1.90283172e+00   1.90349662e+00
   1.91036845e+00   1.91261788e+00   1.91350134e+00   1.91506941e+00
   1.91549492e+00   1.94969236e+00   1.95023699e+00   1.95321799e+00
   1.97802521e+00   2.12001298e+00   2.14056593e+00   2.14272704e+00
   2.14328899e+00   2.17681150e+00   2.28930470e+00   2.28975664e+00
   2.31519691e+00   2.32115558e+00   2.32152983e+00   2.34014821e+00
   2.34214308e+00   2.35027793e+00   2.39262876e+00   2.39923558e+00
   2.39998467e+00   2.41086295e+00   2.49129099e+00   2.49280377e+00
   2.49332563e+00   2.60708807e+00   2.60990243e+00   2.61427152e+00
   2.64308333e+00   2.64894906e+00   2.64950854e+00   2.64974080e+00
   2.65980409e+00   2.66046759e+00   2.66080964e+00   2.66812137e+00
   2.66993583e+00   2.67039399e+00   2.68498196e+00   2.68969962e+00
   2.69260129e+00   2.71826413e+00   2.72351308e+00   2.77282822e+00
   2.77337162e+00   2.77626246e+00   2.79831710e+00   2.81044474e+00
   2.81161204e+00   2.81224428e+00   2.81519646e+00   2.81525191e+00
   2.82270542e+00   2.82791553e+00   2.83103396e+00   2.83173306e+00
   2.87696930e+00   2.92165946e+00   2.92436640e+00   2.93165311e+00
   2.93216845e+00   2.93801727e+00   2.94120979e+00   2.95482754e+00
   2.95503298e+00   2.95553302e+00   2.99740525e+00   2.99827033e+00
   3.01826799e+00   3.01837392e+00   3.01858501e+00   3.04827020e+00
   3.05020967e+00   3.05175013e+00   3.05407328e+00   3.05673774e+00
   3.05757153e+00   3.07784206e+00   3.08074747e+00   3.08865898e+00
   3.08952366e+00   3.19783673e+00   3.19923571e+00   3.20360975e+00
   3.22412614e+00   3.22509128e+00   3.38366562e+00   3.39817489e+00
   3.40368177e+00   3.40544535e+00   3.40912882e+00   3.41229691e+00
   3.41753088e+00   3.42728022e+00   3.42879691e+00   3.44625600e+00
   3.53137152e+00   3.53351311e+00   3.58173438e+00   3.58400513e+00
   3.58443297e+00   3.59119774e+00   3.59191348e+00   3.59213202e+00
   3.63313582e+00   3.63427243e+00   3.63495829e+00   3.63543017e+00
   3.63897440e+00   3.64394562e+00   3.67029429e+00   3.67493416e+00
   3.67539712e+00   3.67759663e+00   3.68304280e+00   3.69097442e+00
   3.72028100e+00   3.72364256e+00   3.72560099e+00   3.75714052e+00
   3.75754525e+00   3.75785001e+00   3.81359141e+00   3.82015485e+00
   3.83081055e+00   3.83996157e+00   3.98075327e+00   4.00697251e+00
   4.07734232e+00   4.08566928e+00   4.09275046e+00   4.09531911e+00
   4.09583848e+00   4.09793201e+00   4.11432339e+00   4.53789163e+00
   4.54818214e+00   4.72888178e+00   4.72897032e+00   4.73471389e+00
   4.96527112e+00   4.98269249e+00   4.98353328e+00   4.98353814e+00
   4.98357340e+00   4.98369670e+00   4.98370192e+00   4.98381299e+00
   4.98382505e+00   4.98385219e+00   4.98502829e+00   4.98503721e+00
   4.98511761e+00   4.98633447e+00   5.09960787e+00   5.25895792e+00
   5.27051391e+00   5.28836106e+00   5.39346443e+00   5.39433347e+00
   5.39492075e+00   5.39510605e+00   5.39589070e+00   5.39600380e+00
   5.39667262e+00   5.40114499e+00   5.40162794e+00   5.40300185e+00
   5.45691298e+00   5.45781678e+00   5.79553846e+00   5.83223811e+00
   5.83361683e+00   5.83687988e+00   5.84940657e+00   5.84985531e+00
   5.86575998e+00   5.86790832e+00   5.87116946e+00   5.87161132e+00
   5.87162014e+00   5.87491078e+00   5.93141492e+00   5.93193749e+00
   5.93360954e+00   5.94231874e+00   5.94416397e+00   5.94437519e+00
   6.17212331e+00   6.25763998e+00   6.25858622e+00   6.25858640e+00
   6.25873405e+00   6.25880408e+00   6.26101634e+00   6.28736995e+00
   6.28843363e+00   6.28959872e+00   6.30371413e+00   6.31015161e+00
   6.31029462e+00   6.31237080e+00   6.31261657e+00   6.31266300e+00
   6.31486831e+00   6.31533186e+00   6.31539625e+00   6.31597029e+00
   6.31651732e+00   6.31697284e+00   6.31875294e+00   6.32180206e+00
   6.32221490e+00   6.44228045e+00   6.44561419e+00   6.45384356e+00
   6.58010140e+00   6.58134814e+00   6.63761335e+00   6.63811578e+00
   6.63988685e+00   6.64229397e+00   6.64627200e+00   6.83599681e+00
   6.86764583e+00   6.86789234e+00   6.87028866e+00   6.89499870e+00
   6.89522324e+00   6.89886804e+00   6.90736601e+00   6.90871437e+00
   6.91000622e+00   6.94874962e+00   6.95145477e+00   6.97228894e+00
   6.97900290e+00   6.98309266e+00   6.98354227e+00   7.04213755e+00
   7.04434049e+00   7.04669128e+00   7.13152910e+00   8.13674045e+00
   8.14057060e+00   8.15269648e+00   8.15786647e+00   8.16587758e+00
   8.25661446e+00   9.69869744e+00   9.72211799e+00   9.77919820e+00
   1.04244430e+01   1.04628973e+01   1.10342797e+01   1.17319802e+01
   1.17508407e+01   1.17525792e+01   1.17527170e+01   1.20205085e+01
   1.20303183e+01   1.20486856e+01   1.28849427e+01   1.28924517e+01
   1.29073387e+01   1.35869238e+01   1.35870121e+01   1.35870666e+01
   1.35878401e+01   1.35878522e+01   1.35879143e+01   1.35973541e+01
   1.35984330e+01   1.36386733e+01   1.40495701e+01   1.40543765e+01
   1.40575544e+01   1.45650989e+01   1.45727566e+01   1.46380468e+01
   1.47058976e+01   1.47082102e+01   1.47166313e+01   1.49966211e+01
   1.50056256e+01   1.51957365e+01   2.79034757e+01   2.79093777e+01
   2.79161211e+01   3.19165544e+01   6.99638683e+01]
nelec by numeric integration = [ 40.00001724  36.00000971]
    CPU time for vxc     56.70 sec, wall time      9.99 sec
    CPU time for vj and vk    637.42 sec, wall time    159.38 sec
Ecoul = 656.58695725  Exc = -46.2479655352
cycle= 1 E= -252.811299942633  delta_E= 0.264  |g|= 2.81  |ddm|= 5.96
    CPU time for cycle= 1    695.34 sec, wall time    169.68 sec
  HOMO = -0.0125104547351007  LUMO = -0.00481322391078474
                  Roothaan           | alpha              | beta
  Highest 2-occ = -0.0567937448043029 | -0.0567937448043029 | -0.0567937448043029
  Lowest 0-occ =  -0.00481322391078474 | -0.00481322391078474 | -0.00481322391078474
  1-occ =         -0.0510719957879981 | -0.0510719957879981 | -0.0510719957879981
  1-occ =         -0.0476767481722561 | -0.0476767481722561 | -0.0476767481722561
  1-occ =         -0.0472395273963537 | -0.0472395273963537 | -0.0472395273963537
  1-occ =         -0.0125104547351007 | -0.0125104547351007 | -0.0125104547351007
  Roothaan mo_energy =
[ -2.34142430e+00  -1.13639804e+00  -1.13240862e+00  -1.13151739e+00
  -1.13066614e+00  -1.08875845e+00  -1.07532243e+00  -1.07523593e+00
  -1.05760701e+00  -1.05741103e+00  -5.43422528e-01  -5.33644297e-01
  -4.95891143e-01  -4.88854807e-01  -4.73429007e-01  -4.73074603e-01
  -4.64847509e-01  -4.63917814e-01  -4.62731289e-01  -4.60109687e-01
  -4.35748126e-01  -4.26333290e-01  -4.15937416e-01  -4.15537035e-01
  -4.14169047e-01  -4.10849040e-01  -3.99803047e-01  -3.99384484e-01
  -3.96513477e-01  -3.96481237e-01  -3.88864668e-01  -3.70212914e-01
  -3.69864819e-01  -3.51645926e-01  -6.54902313e-02  -5.67937448e-02
  -5.10719958e-02  -4.76767482e-02  -4.72395274e-02  -1.25104547e-02
  -4.81322391e-03  -4.04235107e-03   9.12485188e-03   1.14668403e-02
   1.64453544e-02   2.22908900e-02   3.66056972e-02   1.13488549e-01
   1.19605877e-01   1.20012100e-01   1.24130314e-01   1.25427433e-01
   1.29586056e-01   1.32237975e-01   1.34898360e-01   1.39992968e-01
   2.62118950e-01   2.62867436e-01   2.64994754e-01   2.68643996e-01
   2.95482976e-01   3.01369828e-01   3.03019153e-01   3.05931023e-01
   3.06960717e-01   3.67589600e-01   3.79265624e-01   3.83492518e-01
   3.93170247e-01   3.99694124e-01   4.01937117e-01   4.02408667e-01
   4.05272011e-01   4.09616641e-01   4.10083521e-01   4.10290467e-01
   4.18128061e-01   4.26246399e-01   4.31546690e-01   4.51767118e-01
   4.55708838e-01   4.58301887e-01   4.67348521e-01   5.25249437e-01
   5.29813987e-01   5.31776574e-01   5.32281722e-01   5.36043392e-01
   5.56029793e-01   5.59028269e-01   5.61249577e-01   5.63846278e-01
   5.64819166e-01   5.65521825e-01   5.75204783e-01   5.75651089e-01
   5.76533665e-01   5.97972796e-01   6.10895323e-01   6.18762618e-01
   6.23580568e-01   6.45278924e-01   6.47866123e-01   6.74907123e-01
   6.76211524e-01   6.83271840e-01   6.95542298e-01   7.02360662e-01
   7.13091551e-01   7.27564357e-01   7.29147802e-01   7.42927212e-01
   7.44049557e-01   7.47682530e-01   7.90939711e-01   8.00760799e-01
   8.18053797e-01   8.18132671e-01   8.31330349e-01   8.70300505e-01
   8.89728051e-01   8.89873420e-01   8.92255089e-01   9.02196428e-01
   9.02716076e-01   9.03584580e-01   9.13691892e-01   9.16972027e-01
   9.68530282e-01   9.85985353e-01   9.91707100e-01   9.98781479e-01
   1.00465378e+00   1.01932488e+00   1.02213260e+00   1.03682639e+00
   1.03874861e+00   1.14314038e+00   1.16759871e+00   1.18419755e+00
   1.20162077e+00   1.20234360e+00   1.20236494e+00   1.29193367e+00
   1.30686475e+00   1.31920832e+00   1.36466572e+00   1.38755127e+00
   1.40167476e+00   1.42579173e+00   1.46239324e+00   1.47939333e+00
   1.48158413e+00   1.48486439e+00   1.53319819e+00   1.53690524e+00
   1.54312824e+00   1.56876400e+00   1.57307625e+00   1.57572912e+00
   1.57954669e+00   1.61324465e+00   1.61638311e+00   1.63422579e+00
   1.63577493e+00   1.64302698e+00   1.65260377e+00   1.65303731e+00
   1.67038820e+00   1.67803034e+00   1.67912094e+00   1.68174475e+00
   1.68759137e+00   1.70101820e+00   1.70952082e+00   1.70954502e+00
   1.71888019e+00   1.72699362e+00   1.75233390e+00   1.85029325e+00
   1.86954454e+00   1.88637280e+00   1.94664268e+00   1.97202141e+00
   1.98799685e+00   1.99209976e+00   2.00576334e+00   2.00947961e+00
   2.01686817e+00   2.01708337e+00   2.02406894e+00   2.02866197e+00
   2.03570940e+00   2.06472084e+00   2.07854105e+00   2.07939419e+00
   2.08655962e+00   2.09875897e+00   2.11073780e+00   2.11304503e+00
   2.12124425e+00   2.30503971e+00   2.32470289e+00   2.34350415e+00
   2.35910200e+00   2.36033025e+00   2.45899943e+00   2.46060812e+00
   2.48387928e+00   2.48897733e+00   2.49933791e+00   2.51093268e+00
   2.51624629e+00   2.51863307e+00   2.55022976e+00   2.56381890e+00
   2.56390255e+00   2.57408621e+00   2.57842967e+00   2.59750754e+00
   2.60613990e+00   2.60838298e+00   2.61076626e+00   2.64236179e+00
   2.64546149e+00   2.65781903e+00   2.66798485e+00   2.67347221e+00
   2.67727257e+00   2.68400286e+00   2.68593504e+00   2.68740733e+00
   2.69605519e+00   2.79291525e+00   2.80911447e+00   2.81385893e+00
   2.81393855e+00   2.82770107e+00   2.83762083e+00   2.83787060e+00
   2.84230348e+00   2.84579495e+00   2.85110463e+00   2.86183582e+00
   2.86426636e+00   2.87097091e+00   2.87161728e+00   2.87412200e+00
   2.87791337e+00   2.88057320e+00   2.88834648e+00   2.89624212e+00
   2.91674709e+00   2.94611053e+00   2.96248609e+00   2.96381036e+00
   2.96669477e+00   2.97097941e+00   2.97173246e+00   2.97688517e+00
   2.98078642e+00   2.98196863e+00   3.00191142e+00   3.00373984e+00
   3.01493025e+00   3.02813917e+00   3.03680490e+00   3.05516280e+00
   3.06345149e+00   3.07944123e+00   3.10150422e+00   3.12609011e+00
   3.13361668e+00   3.14793287e+00   3.21878084e+00   3.22396181e+00
   3.22468795e+00   3.23420802e+00   3.24964362e+00   3.29440881e+00
   3.33164241e+00   3.36423434e+00   3.45327000e+00   3.47923909e+00
   3.48919951e+00   3.50501022e+00   3.52520905e+00   3.55468922e+00
   3.55809920e+00   3.56116861e+00   3.58597636e+00   3.58612458e+00
   3.62388096e+00   3.64312860e+00   3.64710058e+00   3.65245306e+00
   3.66366433e+00   3.66947544e+00   3.68193174e+00   3.70377299e+00
   3.72485090e+00   3.74203179e+00   3.75256661e+00   3.75503290e+00
   3.78060250e+00   3.78500819e+00   3.78893463e+00   3.80757979e+00
   3.81154877e+00   3.82321645e+00   3.82344694e+00   3.89582090e+00
   3.91864136e+00   3.93489823e+00   3.95844130e+00   3.97110468e+00
   4.01427245e+00   4.03019336e+00   4.19440447e+00   4.23692378e+00
   4.28261420e+00   4.30396526e+00   4.34757257e+00   4.35347896e+00
   4.35560125e+00   4.52250003e+00   4.55332689e+00   4.57768840e+00
   4.66253965e+00   4.66964863e+00   4.68017765e+00   4.69242126e+00
   4.72143970e+00   4.98247958e+00   5.00241341e+00   5.04750136e+00
   5.13289145e+00   5.13291042e+00   5.13336721e+00   5.13341030e+00
   5.18104794e+00   5.18106724e+00   5.18148032e+00   5.18158882e+00
   5.19500820e+00   5.19501530e+00   5.19554440e+00   5.19557143e+00
   5.26745951e+00   5.50075761e+00   5.52171051e+00   5.54433177e+00
   5.54462606e+00   5.55172175e+00   5.58526878e+00   5.59419129e+00
   5.59447536e+00   5.60128856e+00   5.60880475e+00   5.60906825e+00
   5.61607635e+00   5.76753611e+00   5.78153599e+00   5.98569690e+00
   6.01494573e+00   6.03719755e+00   6.04498749e+00   6.04609445e+00
   6.06193319e+00   6.06265152e+00   6.07455021e+00   6.07861718e+00
   6.08043589e+00   6.08813009e+00   6.10271211e+00   6.10351939e+00
   6.10807114e+00   6.11569492e+00   6.15053894e+00   6.16088825e+00
   6.16181124e+00   6.16375076e+00   6.16600036e+00   6.17711306e+00
   6.45122979e+00   6.45225337e+00   6.45838480e+00   6.45963478e+00
   6.45991805e+00   6.46453570e+00   6.49929948e+00   6.50489269e+00
   6.50532445e+00   6.50533324e+00   6.52257120e+00   6.52724652e+00
   6.53215748e+00   6.54743407e+00   6.55151969e+00   6.55329129e+00
   6.55663313e+00   6.55763792e+00   6.56148250e+00   6.56550772e+00
   6.58789554e+00   6.60701145e+00   6.61072080e+00   6.61511837e+00
   6.61517816e+00   6.62280617e+00   6.62590779e+00   6.63030929e+00
   6.73554068e+00   6.75793306e+00   6.75966004e+00   6.78734124e+00
   6.79841956e+00   6.83437633e+00   6.85178397e+00   6.93519755e+00
   6.99675503e+00   7.04696263e+00   7.04776779e+00   7.06514586e+00
   7.09477089e+00   7.12105709e+00   7.12806874e+00   7.13723170e+00
   7.14085105e+00   7.15069266e+00   7.15656830e+00   7.18146705e+00
   7.21082888e+00   7.22796666e+00   7.24148707e+00   7.26844897e+00
   7.27873416e+00   7.29418883e+00   7.61437630e+00   8.31492469e+00
   8.33487212e+00   8.36998657e+00   8.39029587e+00   8.40729331e+00
   8.46084827e+00   9.76483205e+00   9.82737287e+00   9.91171962e+00
   1.04888832e+01   1.05646539e+01   1.11198153e+01   1.32089646e+01
   1.32244235e+01   1.32303917e+01   1.32324447e+01   1.34410264e+01
   1.34501365e+01   1.35041976e+01   1.40644293e+01   1.40751880e+01
   1.41324344e+01   1.48915446e+01   1.49060639e+01   1.49202828e+01
   1.49205008e+01   1.49405747e+01   1.49497361e+01   1.49498662e+01
   1.49528875e+01   1.49703197e+01   1.50310789e+01   1.50343570e+01
   1.50879240e+01   1.50912148e+01   1.51171895e+01   1.51280935e+01
   1.54910585e+01   1.55117755e+01   1.55163736e+01   1.62470980e+01
   1.62968594e+01   1.64389084e+01   2.94411050e+01   2.94491429e+01
   2.94919890e+01   3.30547963e+01   7.12720144e+01]
nelec by numeric integration = [ 40.00005843  36.00002233]
    CPU time for vxc     51.02 sec, wall time      8.62 sec
    CPU time for vj and vk    624.58 sec, wall time    156.15 sec
Ecoul = 580.712939462  Exc = -39.4855787256
cycle= 2 E= -238.238014485442  delta_E= 14.6  |g|= 6.99  |ddm|= 5.43
    CPU time for cycle= 2    676.75 sec, wall time    165.06 sec
  HOMO = -0.112934471210554  LUMO = -0.0820366893700176
                  Roothaan           | alpha              | beta
  Highest 2-occ = -0.375417915582415 | -0.375417915582415 | -0.375417915582415
  Lowest 0-occ =  -0.0820366893700176 | -0.0820366893700176 | -0.0820366893700176
  1-occ =          -0.35786717474559 |  -0.35786717474559 |  -0.35786717474559
  1-occ =         -0.297840596558294 | -0.297840596558294 | -0.297840596558294
  1-occ =         -0.270144903637989 | -0.270144903637989 | -0.270144903637989
  1-occ =         -0.112934471210554 | -0.112934471210554 | -0.112934471210554
  Roothaan mo_energy =
[ -3.65567450e+00  -2.39096041e+00  -2.38955253e+00  -2.35740724e+00
  -1.14920122e+00  -1.14918359e+00  -1.13345781e+00  -1.13344460e+00
  -1.03434572e+00  -1.03431653e+00  -6.03741469e-01  -5.74942560e-01
  -5.68781357e-01  -5.64181505e-01  -5.20102407e-01  -5.00185349e-01
  -4.94233913e-01  -4.84732376e-01  -4.84239817e-01  -4.82871432e-01
  -4.81928883e-01  -4.79665302e-01  -4.75693724e-01  -4.67386140e-01
  -4.65789999e-01  -4.63956946e-01  -4.60384650e-01  -4.59914351e-01
  -4.10548684e-01  -4.06728890e-01  -3.98996698e-01  -3.85966455e-01
  -3.85495076e-01  -3.82397585e-01  -3.82240984e-01  -3.75417916e-01
  -3.57867175e-01  -2.97840597e-01  -2.70144904e-01  -1.12934471e-01
  -8.20366894e-02  -8.17550670e-02  -7.78836867e-02  -7.51666649e-02
  -7.10164877e-02  -5.09955827e-02  -2.96740645e-02  -2.44812440e-02
  -4.25708330e-03  -3.48089702e-03   2.12978960e-02   2.34416716e-02
   3.47218082e-02   9.85777466e-02   9.99578580e-02   1.06249206e-01
   1.11610430e-01   1.13811266e-01   1.24717776e-01   1.24809946e-01
   1.25436755e-01   1.27063596e-01   1.94510515e-01   2.02071336e-01
   2.04351973e-01   2.75724946e-01   2.78017222e-01   2.78605552e-01
   2.83436011e-01   2.88444842e-01   2.94274255e-01   3.06272429e-01
   3.06832578e-01   3.44409595e-01   3.68851258e-01   3.85690969e-01
   3.87627191e-01   3.91244321e-01   3.94220936e-01   3.95556049e-01
   4.14686180e-01   4.14958685e-01   4.15026062e-01   4.22972835e-01
   4.47316507e-01   4.52410727e-01   4.60999680e-01   4.64349255e-01
   4.89966327e-01   4.92288600e-01   5.06482868e-01   5.10258293e-01
   5.14774114e-01   5.15072109e-01   5.20112753e-01   5.23048959e-01
   5.37700397e-01   5.50542270e-01   5.66218247e-01   5.81284013e-01
   5.81832575e-01   5.86936458e-01   5.88536834e-01   5.92101887e-01
   6.04527842e-01   6.19226125e-01   6.27114709e-01   6.36314371e-01
   6.61719835e-01   6.74891514e-01   6.84825088e-01   6.85740962e-01
   7.10657718e-01   7.15210600e-01   7.17945826e-01   7.24297940e-01
   7.26369530e-01   7.36557227e-01   7.42684585e-01   7.44734007e-01
   7.49964993e-01   7.53113999e-01   7.53979960e-01   7.85663618e-01
   7.90840707e-01   8.21850611e-01   8.36234679e-01   8.42353328e-01
   8.43309469e-01   8.43412659e-01   8.55074974e-01   9.44036464e-01
   9.62710544e-01   9.70366786e-01   9.74937301e-01   9.78814263e-01
   1.01930888e+00   1.07378475e+00   1.07971119e+00   1.10926542e+00
   1.15007072e+00   1.16158440e+00   1.16259676e+00   1.16553946e+00
   1.17378685e+00   1.20383636e+00   1.21620831e+00   1.22155784e+00
   1.25951979e+00   1.29185882e+00   1.30237833e+00   1.35363415e+00
   1.35479784e+00   1.39455504e+00   1.49571822e+00   1.50549081e+00
   1.52311322e+00   1.53184073e+00   1.53663622e+00   1.54372899e+00
   1.55170586e+00   1.56505244e+00   1.56700765e+00   1.57571183e+00
   1.58937410e+00   1.59527878e+00   1.59888335e+00   1.60456367e+00
   1.61216174e+00   1.63753792e+00   1.64685251e+00   1.65041134e+00
   1.65626426e+00   1.67494995e+00   1.68123378e+00   1.68276966e+00
   1.70574069e+00   1.70883110e+00   1.71180878e+00   1.83768273e+00
   1.85187039e+00   1.86095236e+00   1.86514483e+00   1.86659439e+00
   1.86890569e+00   1.87037432e+00   1.94004530e+00   1.95496032e+00
   1.95979014e+00   1.96155850e+00   1.97215737e+00   1.98783525e+00
   1.99592002e+00   1.99749994e+00   1.99780213e+00   2.00302090e+00
   2.01623502e+00   2.02269719e+00   2.04767908e+00   2.07661274e+00
   2.07671808e+00   2.18193217e+00   2.18439960e+00   2.18660869e+00
   2.19450322e+00   2.21228405e+00   2.30281720e+00   2.34199742e+00
   2.34684247e+00   2.34890365e+00   2.39895195e+00   2.41506155e+00
   2.42530017e+00   2.44483155e+00   2.44747735e+00   2.46269261e+00
   2.48588432e+00   2.48720093e+00   2.53929156e+00   2.57539298e+00
   2.58152666e+00   2.61990499e+00   2.63136158e+00   2.63265454e+00
   2.64007388e+00   2.65130122e+00   2.65319226e+00   2.65336924e+00
   2.65561900e+00   2.67378952e+00   2.68379065e+00   2.68384217e+00
   2.70573053e+00   2.70637514e+00   2.71820305e+00   2.74413724e+00
   2.74528485e+00   2.78741189e+00   2.80901680e+00   2.81142682e+00
   2.81224470e+00   2.81500573e+00   2.82125736e+00   2.82231330e+00
   2.82413114e+00   2.82967414e+00   2.83916426e+00   2.84292327e+00
   2.87067000e+00   2.88909770e+00   2.88940408e+00   2.89303843e+00
   2.91821434e+00   2.92444140e+00   2.93192759e+00   2.94488336e+00
   2.94907487e+00   2.96226741e+00   2.96313386e+00   2.96770791e+00
   2.96829234e+00   2.96869612e+00   2.97990744e+00   2.99931468e+00
   3.00661074e+00   3.04328173e+00   3.05456045e+00   3.05534278e+00
   3.05756099e+00   3.06210941e+00   3.07383152e+00   3.08777841e+00
   3.09180745e+00   3.09684289e+00   3.10931305e+00   3.12625001e+00
   3.13219712e+00   3.21557789e+00   3.23589742e+00   3.24125117e+00
   3.24295578e+00   3.27767646e+00   3.37941895e+00   3.41596417e+00
   3.41810550e+00   3.42085791e+00   3.42548677e+00   3.43287438e+00
   3.45920805e+00   3.47230393e+00   3.49114430e+00   3.51333820e+00
   3.53391696e+00   3.57983406e+00   3.58582205e+00   3.59934320e+00
   3.59937891e+00   3.61879671e+00   3.63746905e+00   3.63931716e+00
   3.64030710e+00   3.65570800e+00   3.66067021e+00   3.66683178e+00
   3.66892411e+00   3.67073201e+00   3.68915579e+00   3.70105371e+00
   3.70845773e+00   3.70912927e+00   3.72990200e+00   3.73436749e+00
   3.74028960e+00   3.75807735e+00   3.78407373e+00   3.78499042e+00
   3.79420657e+00   3.80027512e+00   3.86077195e+00   3.86783477e+00
   3.87142351e+00   3.91623428e+00   4.06529216e+00   4.08887925e+00
   4.09962766e+00   4.10429947e+00   4.10949568e+00   4.12864988e+00
   4.16067959e+00   4.17668774e+00   4.18154120e+00   4.55413916e+00
   4.58379876e+00   4.73614926e+00   4.74482503e+00   4.79403518e+00
   4.99272964e+00   5.02125214e+00   5.08786722e+00   5.08787883e+00
   5.08832469e+00   5.08834273e+00   5.10252259e+00   5.10254543e+00
   5.10297398e+00   5.10298185e+00   5.13999329e+00   5.19464863e+00
   5.19465479e+00   5.19486472e+00   5.19501130e+00   5.26651689e+00
   5.28230198e+00   5.31448959e+00   5.50454644e+00   5.50494284e+00
   5.51094011e+00   5.51986591e+00   5.52013171e+00   5.52314257e+00
   5.52572263e+00   5.56524085e+00   5.61220669e+00   5.61238463e+00
   5.61770808e+00   5.64536952e+00   5.91641307e+00   5.96803660e+00
   5.97830384e+00   5.98418391e+00   6.00133435e+00   6.00594844e+00
   6.01856976e+00   6.02405876e+00   6.02987404e+00   6.03420330e+00
   6.04373496e+00   6.05030879e+00   6.07584596e+00   6.09424077e+00
   6.13145074e+00   6.13234537e+00   6.14734098e+00   6.14778311e+00
   6.27238036e+00   6.40262116e+00   6.40405689e+00   6.40810119e+00
   6.41873023e+00   6.42378510e+00   6.42974233e+00   6.43422911e+00
   6.46190413e+00   6.47623688e+00   6.47624237e+00   6.47797301e+00
   6.47942424e+00   6.47978700e+00   6.48519588e+00   6.49407536e+00
   6.49556154e+00   6.49619129e+00   6.50195037e+00   6.52290100e+00
   6.52375363e+00   6.53556305e+00   6.54545716e+00   6.54669407e+00
   6.58383483e+00   6.60064639e+00   6.60365150e+00   6.60818675e+00
   6.70470457e+00   6.70953287e+00   6.73265663e+00   6.75072868e+00
   6.76074986e+00   6.76786730e+00   6.84746098e+00   6.91160034e+00
   6.98113705e+00   6.99315715e+00   7.03336933e+00   7.04163163e+00
   7.05972134e+00   7.06628297e+00   7.06899786e+00   7.07766454e+00
   7.07928498e+00   7.08353119e+00   7.09196835e+00   7.12715421e+00
   7.13897114e+00   7.19588385e+00   7.19895592e+00   7.20510174e+00
   7.20775819e+00   7.24982911e+00   7.25134385e+00   8.26714419e+00
   8.26752502e+00   8.28042697e+00   8.31773555e+00   8.36134246e+00
   8.43451136e+00   9.74970707e+00   9.80786913e+00   9.82231741e+00
   1.04831664e+01   1.05290320e+01   1.10891062e+01   1.17936181e+01
   1.18113132e+01   1.18172120e+01   1.18189563e+01   1.20755652e+01
   1.20857871e+01   1.21286757e+01   1.29124349e+01   1.29211973e+01
   1.29653627e+01   1.36024290e+01   1.36220794e+01   1.36226313e+01
   1.36227055e+01   1.36371918e+01   1.36445453e+01   1.36456422e+01
   1.36496335e+01   1.36901974e+01   1.41059351e+01   1.41224069e+01
   1.41261596e+01   1.47204718e+01   1.47507617e+01   1.48413942e+01
   1.49413171e+01   1.49512004e+01   1.50689020e+01   1.51494962e+01
   1.52023631e+01   1.53168853e+01   2.79725836e+01   2.79795575e+01
   2.80120357e+01   3.19649799e+01   7.00232441e+01]
nelec by numeric integration = [ 40.0000208   36.00001206]
    CPU time for vxc     57.74 sec, wall time      9.68 sec
    CPU time for vj and vk    607.04 sec, wall time    151.78 sec
Ecoul = 648.278086778  Exc = -43.6312540576
cycle= 3 E= -252.779758112465  delta_E= -14.5  |g|= 2.56  |ddm|= 4.73
    CPU time for cycle= 3    665.93 sec, wall time    161.76 sec
  HOMO = -0.0726351739537587  LUMO = -0.0550596776030989
                  Roothaan           | alpha              | beta
  Highest 2-occ = -0.238060687147298 | -0.238060687147298 | -0.238060687147298
  Lowest 0-occ =  -0.0550596776030989 | -0.0550596776030989 | -0.0550596776030989
  1-occ =         -0.187078504147037 | -0.187078504147037 | -0.187078504147037
  1-occ =         -0.143768855274269 | -0.143768855274269 | -0.143768855274269
  1-occ =         -0.110094225773434 | -0.110094225773434 | -0.110094225773434
  1-occ =         -0.0726351739537587 | -0.0726351739537587 | -0.0726351739537587
  Roothaan mo_energy =
[ -3.46023173e+00  -2.19768917e+00  -2.19647601e+00  -2.16668789e+00
  -1.16609950e+00  -1.16607086e+00  -1.16447308e+00  -1.16445692e+00
  -1.12877732e+00  -1.12875831e+00  -5.88791931e-01  -5.84641760e-01
  -5.83090300e-01  -5.82157220e-01  -5.52840714e-01  -5.51282748e-01
  -4.91101844e-01  -4.89380049e-01  -4.88952218e-01  -4.88935491e-01
  -4.87779103e-01  -4.87492576e-01  -4.86617771e-01  -4.84439358e-01
  -4.77037013e-01  -4.57998777e-01  -4.56344422e-01  -4.56064379e-01
  -4.54992200e-01  -4.25942323e-01  -4.18288430e-01  -4.17556879e-01
  -4.08472537e-01  -3.90662886e-01  -2.42394187e-01  -2.38060687e-01
  -1.87078504e-01  -1.43768855e-01  -1.10094226e-01  -7.26351740e-02
  -5.50596776e-02  -5.12732331e-02  -5.08160480e-02  -4.63399814e-02
  -4.60800652e-02  -2.43737896e-02  -1.00280137e-02  -9.98613787e-03
  -9.26111817e-03   2.86324684e-03   1.98055551e-02   2.08468148e-02
   9.62476806e-02   1.20604073e-01   1.22869247e-01   1.23744141e-01
   1.24184865e-01   1.34945164e-01   1.38254216e-01   1.43594551e-01
   1.45163707e-01   1.57217748e-01   2.53132624e-01   2.59553767e-01
   2.61565790e-01   2.85864310e-01   2.87839094e-01   2.97099116e-01
   3.03115461e-01   3.03824222e-01   3.13497986e-01   3.20181404e-01
   3.20373260e-01   3.32615681e-01   3.74802298e-01   3.81880368e-01
   3.83002586e-01   3.90452091e-01   3.90757295e-01   4.00144471e-01
   4.30985358e-01   4.39508771e-01   4.41637459e-01   4.46578115e-01
   4.47599859e-01   4.72329111e-01   4.75781504e-01   4.79781491e-01
   5.07161993e-01   5.07882118e-01   5.08882077e-01   5.16800273e-01
   5.18385590e-01   5.24957966e-01   5.34968799e-01   5.58069234e-01
   5.66119598e-01   5.89807313e-01   5.94664738e-01   5.95846990e-01
   6.04086681e-01   6.09567481e-01   6.11122336e-01   6.15413114e-01
   6.37608381e-01   6.45107456e-01   6.54724327e-01   6.77571018e-01
   6.77758157e-01   6.83823554e-01   6.86555461e-01   6.93881467e-01
   7.41119312e-01   7.49315523e-01   7.49447522e-01   7.51169022e-01
   7.52806280e-01   7.60160242e-01   7.64291211e-01   7.68497947e-01
   7.89725747e-01   7.98671461e-01   8.02121417e-01   8.20364937e-01
   8.33146413e-01   8.36779235e-01   8.70116794e-01   8.72355262e-01
   8.76421061e-01   8.77029788e-01   8.77824036e-01   9.83334072e-01
   9.85411410e-01   9.91903896e-01   9.92415031e-01   1.00292736e+00
   1.00305731e+00   1.08796209e+00   1.12930343e+00   1.13929443e+00
   1.15797704e+00   1.17115692e+00   1.17878193e+00   1.18253408e+00
   1.18331981e+00   1.25870377e+00   1.26247410e+00   1.26894389e+00
   1.27404178e+00   1.31002297e+00   1.31412605e+00   1.36401724e+00
   1.37025873e+00   1.38042098e+00   1.52783049e+00   1.53473358e+00
   1.53544992e+00   1.54852429e+00   1.55063950e+00   1.55122400e+00
   1.55891135e+00   1.55981156e+00   1.56452822e+00   1.56801652e+00
   1.57530032e+00   1.58337721e+00   1.58634227e+00   1.62954418e+00
   1.63196334e+00   1.63385438e+00   1.65627799e+00   1.65706019e+00
   1.65790364e+00   1.65942854e+00   1.66045389e+00   1.66853996e+00
   1.71425964e+00   1.72619613e+00   1.72846422e+00   1.87501872e+00
   1.87787899e+00   1.88319826e+00   1.88872643e+00   1.90605719e+00
   1.91550833e+00   1.91610666e+00   1.92591988e+00   1.93996308e+00
   1.94065400e+00   1.95790914e+00   1.96891434e+00   1.97003139e+00
   1.97476863e+00   1.97626772e+00   1.98283107e+00   1.98659477e+00
   1.98666720e+00   2.01482325e+00   2.02915389e+00   2.03094849e+00
   2.04764720e+00   2.20101949e+00   2.21575650e+00   2.21876495e+00
   2.23860842e+00   2.27063752e+00   2.34099068e+00   2.35661468e+00
   2.37149904e+00   2.37626754e+00   2.39165199e+00   2.40468119e+00
   2.41568078e+00   2.41985703e+00   2.46890172e+00   2.46929747e+00
   2.47998884e+00   2.48126706e+00   2.54590079e+00   2.55909807e+00
   2.55935207e+00   2.66625964e+00   2.67056423e+00   2.67108877e+00
   2.67415393e+00   2.68625597e+00   2.69155115e+00   2.69230373e+00
   2.69237636e+00   2.69283460e+00   2.69796908e+00   2.70842884e+00
   2.72226607e+00   2.72387236e+00   2.74164119e+00   2.74384441e+00
   2.74599888e+00   2.77304096e+00   2.78251484e+00   2.81790467e+00
   2.81898043e+00   2.82503631e+00   2.84945371e+00   2.85961773e+00
   2.86014085e+00   2.86059920e+00   2.87402472e+00   2.87520292e+00
   2.87651250e+00   2.88914707e+00   2.89164034e+00   2.90375475e+00
   2.94199654e+00   2.96585537e+00   2.98594493e+00   2.99350150e+00
   2.99375731e+00   3.00694592e+00   3.01112833e+00   3.02012350e+00
   3.02274422e+00   3.02395456e+00   3.04411409e+00   3.06624020e+00
   3.06659959e+00   3.07277671e+00   3.10097745e+00   3.10745239e+00
   3.11104983e+00   3.11497905e+00   3.13658435e+00   3.15251448e+00
   3.15426215e+00   3.16045226e+00   3.16953174e+00   3.17020754e+00
   3.18432243e+00   3.26616788e+00   3.27439400e+00   3.27478617e+00
   3.27917707e+00   3.29563396e+00   3.45975167e+00   3.46349398e+00
   3.48687021e+00   3.49642308e+00   3.51152894e+00   3.52329632e+00
   3.53531878e+00   3.53832936e+00   3.54266220e+00   3.54393721e+00
   3.58637716e+00   3.60428200e+00   3.65380525e+00   3.66614630e+00
   3.66626662e+00   3.66726427e+00   3.66729139e+00   3.67435814e+00
   3.68756952e+00   3.69702314e+00   3.69803882e+00   3.73045474e+00
   3.73972553e+00   3.74259027e+00   3.74590519e+00   3.74722046e+00
   3.74850061e+00   3.74862282e+00   3.75500484e+00   3.75518402e+00
   3.77076846e+00   3.78949420e+00   3.79070845e+00   3.79413983e+00
   3.80755514e+00   3.80944257e+00   3.89037906e+00   3.89776271e+00
   3.91765565e+00   3.92365984e+00   4.08813598e+00   4.11685983e+00
   4.16540732e+00   4.16834893e+00   4.17774460e+00   4.17895929e+00
   4.19558346e+00   4.21765873e+00   4.23604262e+00   4.61512775e+00
   4.63082393e+00   4.79361917e+00   4.79550309e+00   4.81554949e+00
   5.05277539e+00   5.05278601e+00   5.05305070e+00   5.05332293e+00
   5.05450894e+00   5.05456046e+00   5.05507695e+00   5.05533744e+00
   5.08050593e+00   5.08652055e+00   5.08654222e+00   5.08700891e+00
   5.08705549e+00   5.11178498e+00   5.18174986e+00   5.40219461e+00
   5.41472421e+00   5.44840522e+00   5.47893809e+00   5.47947473e+00
   5.48173192e+00   5.48176669e+00   5.48590236e+00   5.48716035e+00
   5.48772157e+00   5.51409809e+00   5.51424242e+00   5.52018864e+00
   5.54512847e+00   5.56728662e+00   5.90015407e+00   5.93261490e+00
   5.94018573e+00   5.94797826e+00   5.95449473e+00   5.95491171e+00
   5.95875007e+00   5.96389041e+00   5.96611654e+00   5.96990232e+00
   5.97167093e+00   5.97709346e+00   6.02292988e+00   6.02900089e+00
   6.03563729e+00   6.03602374e+00   6.04491191e+00   6.04604873e+00
   6.28721853e+00   6.37375849e+00   6.37608539e+00   6.38308607e+00
   6.38563309e+00   6.38721050e+00   6.38889149e+00   6.40264185e+00
   6.41435501e+00   6.41702565e+00   6.41840644e+00   6.41925300e+00
   6.42260253e+00   6.42413955e+00   6.42458969e+00   6.42604908e+00
   6.42947597e+00   6.43113845e+00   6.43430159e+00   6.45103987e+00
   6.45449004e+00   6.45504941e+00   6.45636774e+00   6.45888558e+00
   6.45889924e+00   6.49923047e+00   6.50902994e+00   6.52663939e+00
   6.67180561e+00   6.69154235e+00   6.70873086e+00   6.72244666e+00
   6.72536926e+00   6.72627196e+00   6.75251491e+00   6.90663972e+00
   6.97516521e+00   6.97597018e+00   6.99246767e+00   7.00404206e+00
   7.00778545e+00   7.00841473e+00   7.01115369e+00   7.02017257e+00
   7.02189233e+00   7.03870142e+00   7.05568332e+00   7.07862459e+00
   7.09197745e+00   7.09591002e+00   7.09646446e+00   7.14349657e+00
   7.15335867e+00   7.15656378e+00   7.23542125e+00   8.24493028e+00
   8.25928351e+00   8.27045044e+00   8.27780592e+00   8.28573614e+00
   8.37375456e+00   9.78810433e+00   9.82439490e+00   9.85879590e+00
   1.05106703e+01   1.05448815e+01   1.11175970e+01   1.19936404e+01
   1.20113039e+01   1.20179020e+01   1.20193242e+01   1.22694144e+01
   1.22790397e+01   1.23216079e+01   1.30913858e+01   1.30997188e+01
   1.31424933e+01   1.37985664e+01   1.38173420e+01   1.38174144e+01
   1.38175041e+01   1.38309139e+01   1.38376641e+01   1.38385288e+01
   1.38429137e+01   1.38816107e+01   1.43033770e+01   1.43177337e+01
   1.43212667e+01   1.47531819e+01   1.47718500e+01   1.48163696e+01
   1.48577191e+01   1.48656003e+01   1.48909064e+01   1.52080856e+01
   1.52393897e+01   1.54196971e+01   2.81759756e+01   2.81826721e+01
   2.82132187e+01   3.21234956e+01   7.01924433e+01]
nelec by numeric integration = [ 40.00002524  36.00001436]
    CPU time for vxc     59.10 sec, wall time      9.86 sec
    CPU time for vj and vk    596.40 sec, wall time    149.09 sec
Ecoul = 638.297077015  Exc = -44.1599237224
cycle= 4 E= -254.086825167012  delta_E= -1.31  |g|= 0.427  |ddm|= 1.52
    CPU time for cycle= 4    656.91 sec, wall time    159.31 sec
  HOMO = -0.0896102252809247  LUMO = -0.0883112792005473
                  Roothaan           | alpha              | beta
  Highest 2-occ =  -0.22868210326126 |  -0.22868210326126 |  -0.22868210326126
  Lowest 0-occ =  -0.0883112792005473 | -0.0883112792005473 | -0.0883112792005473
  1-occ =         -0.182421074981067 | -0.182421074981067 | -0.182421074981067
  1-occ =         -0.137624539495566 | -0.137624539495566 | -0.137624539495566
  1-occ =         -0.0984103783716486 | -0.0984103783716486 | -0.0984103783716486
  1-occ =         -0.0896102252809247 | -0.0896102252809247 | -0.0896102252809247
  Roothaan mo_energy =
[ -3.43645687e+00  -2.17586415e+00  -2.17042207e+00  -2.14222777e+00
  -1.23069905e+00  -1.23067583e+00  -1.15781876e+00  -1.15779733e+00
  -1.13955756e+00  -1.13953721e+00  -6.27880593e-01  -6.26304038e-01
  -5.70743457e-01  -5.68010168e-01  -5.53955233e-01  -5.52828645e-01
  -5.39421415e-01  -5.39093665e-01  -5.39087623e-01  -5.38542727e-01
  -5.03406210e-01  -4.85925371e-01  -4.78032161e-01  -4.77485179e-01
  -4.76892338e-01  -4.71913591e-01  -4.62231616e-01  -4.61875477e-01
  -4.60206545e-01  -4.58008604e-01  -4.34844463e-01  -4.17791473e-01
  -4.01961058e-01  -3.96821874e-01  -2.32881541e-01  -2.28682103e-01
  -1.82421075e-01  -1.37624539e-01  -9.84103784e-02  -8.96102253e-02
  -8.83112792e-02  -8.51689565e-02  -8.15856880e-02  -5.94248843e-02
  -4.61598119e-02  -3.38502733e-02  -2.13623519e-02  -1.28261238e-02
  -1.27639385e-02  -1.15322282e-02  -2.06497006e-04   1.50063994e-02
   9.89707772e-02   1.04444014e-01   1.12685644e-01   1.20393920e-01
   1.26166888e-01   1.30197098e-01   1.31178482e-01   1.32514991e-01
   1.37198427e-01   1.48029438e-01   2.38496370e-01   2.44407670e-01
   2.48499224e-01   2.78971167e-01   2.87051604e-01   2.90698942e-01
   2.97812225e-01   3.01130557e-01   3.11864756e-01   3.12181333e-01
   3.14604396e-01   3.32622187e-01   3.61709741e-01   3.66047426e-01
   3.78614019e-01   3.87222272e-01   3.93266912e-01   3.96646817e-01
   4.17645628e-01   4.26576697e-01   4.31910451e-01   4.39967122e-01
   4.40490989e-01   4.63595928e-01   4.70939613e-01   4.84353143e-01
   4.90473724e-01   4.98238824e-01   4.99348071e-01   5.04370001e-01
   5.19554515e-01   5.23098562e-01   5.24786942e-01   5.45012442e-01
   5.57552062e-01   5.68796225e-01   5.77964905e-01   5.92171901e-01
   5.95539801e-01   6.03385917e-01   6.07114111e-01   6.18461092e-01
   6.22943627e-01   6.30200075e-01   6.53750828e-01   6.55160381e-01
   6.65089091e-01   6.74702527e-01   6.86269574e-01   6.87961771e-01
   7.20683182e-01   7.21906441e-01   7.24949508e-01   7.44664608e-01
   7.47143735e-01   7.48790925e-01   7.52477588e-01   7.59586561e-01
   7.74524281e-01   7.88865429e-01   7.98177209e-01   8.02249071e-01
   8.27130448e-01   8.46322881e-01   8.59468772e-01   8.60728860e-01
   8.62642086e-01   8.64878387e-01   8.71250182e-01   9.52527604e-01
   9.61527603e-01   9.78519713e-01   9.87972725e-01   9.98169080e-01
   1.00741176e+00   1.08404107e+00   1.11543226e+00   1.13500568e+00
   1.14435229e+00   1.16924919e+00   1.17079948e+00   1.17210798e+00
   1.17856357e+00   1.24737891e+00   1.25990336e+00   1.26290275e+00
   1.27526453e+00   1.29764236e+00   1.30437735e+00   1.33589282e+00
   1.36606448e+00   1.38079390e+00   1.50409518e+00   1.50537690e+00
   1.52044591e+00   1.52697463e+00   1.52967105e+00   1.53122562e+00
   1.55464053e+00   1.55753518e+00   1.56210027e+00   1.57157569e+00
   1.57297713e+00   1.57568639e+00   1.58597719e+00   1.61165594e+00
   1.61443815e+00   1.62578530e+00   1.64178183e+00   1.64323327e+00
   1.64905719e+00   1.64993622e+00   1.65896033e+00   1.66642072e+00
   1.68265637e+00   1.68851804e+00   1.72051572e+00   1.84290494e+00
   1.86139627e+00   1.86948881e+00   1.88201238e+00   1.89532944e+00
   1.90142992e+00   1.90427714e+00   1.93276280e+00   1.93383134e+00
   1.94495927e+00   1.94651824e+00   1.95227582e+00   1.95708143e+00
   1.95794125e+00   1.96098007e+00   1.97791074e+00   1.98323999e+00
   1.99681948e+00   2.01183323e+00   2.02626459e+00   2.03515729e+00
   2.03560824e+00   2.20922251e+00   2.21766013e+00   2.21792665e+00
   2.22441349e+00   2.27809497e+00   2.31196995e+00   2.33171199e+00
   2.35633176e+00   2.36250323e+00   2.37524078e+00   2.39992210e+00
   2.40382769e+00   2.41689708e+00   2.44449482e+00   2.45201000e+00
   2.46642868e+00   2.48804361e+00   2.52803184e+00   2.54013996e+00
   2.56365593e+00   2.62511683e+00   2.62601919e+00   2.63360470e+00
   2.63806964e+00   2.65973151e+00   2.66349735e+00   2.67038010e+00
   2.67815080e+00   2.68506078e+00   2.68784080e+00   2.70131441e+00
   2.70610981e+00   2.70692778e+00   2.72750858e+00   2.72867996e+00
   2.73442775e+00   2.75837199e+00   2.78109119e+00   2.79476090e+00
   2.80183775e+00   2.80375261e+00   2.81282753e+00   2.81701103e+00
   2.82318884e+00   2.84702546e+00   2.85365973e+00   2.86197196e+00
   2.87256206e+00   2.87523972e+00   2.87764006e+00   2.88533825e+00
   2.93437695e+00   2.94046361e+00   2.94215538e+00   2.96112861e+00
   2.96586597e+00   2.97408384e+00   2.98238153e+00   2.98465335e+00
   2.98931611e+00   2.99092503e+00   3.01028376e+00   3.01290227e+00
   3.04685503e+00   3.05517480e+00   3.06383939e+00   3.06385358e+00
   3.07338089e+00   3.09167000e+00   3.11009072e+00   3.11089371e+00
   3.12387171e+00   3.13255816e+00   3.16067192e+00   3.16580685e+00
   3.20091371e+00   3.23746454e+00   3.23828887e+00   3.24410987e+00
   3.25983527e+00   3.27130852e+00   3.40902541e+00   3.43862954e+00
   3.45875682e+00   3.47411597e+00   3.49335629e+00   3.52250651e+00
   3.52427914e+00   3.53262372e+00   3.55316540e+00   3.55762874e+00
   3.58162346e+00   3.59933869e+00   3.61707687e+00   3.62130216e+00
   3.64992712e+00   3.65114743e+00   3.66533268e+00   3.67476380e+00
   3.68354950e+00   3.69831379e+00   3.70146705e+00   3.70244795e+00
   3.70767353e+00   3.70799410e+00   3.71943389e+00   3.72560303e+00
   3.73385831e+00   3.74309581e+00   3.75159723e+00   3.76211477e+00
   3.76599719e+00   3.77444183e+00   3.77848387e+00   3.78353376e+00
   3.79135374e+00   3.80607807e+00   3.86202968e+00   3.90104861e+00
   3.90783764e+00   3.91021941e+00   4.04912397e+00   4.11544804e+00
   4.15350346e+00   4.16349172e+00   4.17687130e+00   4.18015500e+00
   4.18095064e+00   4.21771935e+00   4.26115400e+00   4.58521941e+00
   4.63549384e+00   4.76004001e+00   4.80031857e+00   4.81365335e+00
   5.01651545e+00   5.01654443e+00   5.01703340e+00   5.01707276e+00
   5.07410802e+00   5.07419148e+00   5.07462165e+00   5.07473471e+00
   5.08707473e+00   5.08947249e+00   5.08948076e+00   5.09001762e+00
   5.09003947e+00   5.12349578e+00   5.17400049e+00   5.41849757e+00
   5.43419905e+00   5.43541331e+00   5.43829082e+00   5.44228152e+00
   5.46447349e+00   5.47734967e+00   5.49735056e+00   5.49754203e+00
   5.50328962e+00   5.51247005e+00   5.51280511e+00   5.51906109e+00
   5.54156169e+00   5.56866362e+00   5.87641064e+00   5.89580756e+00
   5.93008144e+00   5.93206754e+00   5.93295900e+00   5.93738501e+00
   5.94088285e+00   5.95931711e+00   5.96126690e+00   5.97698089e+00
   5.98002482e+00   5.98540430e+00   6.02440074e+00   6.02618357e+00
   6.03300434e+00   6.03889629e+00   6.04109548e+00   6.05686499e+00
   6.27735308e+00   6.32997137e+00   6.33066853e+00   6.33776927e+00
   6.33863027e+00   6.37409950e+00   6.37654968e+00   6.38185887e+00
   6.38277575e+00   6.39331842e+00   6.39619241e+00   6.40088021e+00
   6.41828131e+00   6.42773209e+00   6.43193436e+00   6.43984204e+00
   6.44286765e+00   6.44307908e+00   6.44403407e+00   6.44497136e+00
   6.44829727e+00   6.45534532e+00   6.45749488e+00   6.45933396e+00
   6.46064815e+00   6.46529600e+00   6.49843376e+00   6.52387803e+00
   6.64899569e+00   6.67448159e+00   6.67835974e+00   6.69284840e+00
   6.71933363e+00   6.73577596e+00   6.75501579e+00   6.88542756e+00
   6.91091676e+00   6.96547438e+00   6.97170353e+00   6.98386819e+00
   6.98871356e+00   6.98979636e+00   6.99512116e+00   6.99885369e+00
   7.02065307e+00   7.03718217e+00   7.04579136e+00   7.07276256e+00
   7.07790550e+00   7.09242040e+00   7.10900739e+00   7.13639825e+00
   7.14625520e+00   7.16145316e+00   7.23997781e+00   8.18728344e+00
   8.22362643e+00   8.25654935e+00   8.28955898e+00   8.29107841e+00
   8.36101739e+00   9.71324716e+00   9.78964908e+00   9.87224966e+00
   1.04497702e+01   1.05349488e+01   1.10923646e+01   1.20096186e+01
   1.20279738e+01   1.20369346e+01   1.20380230e+01   1.22862254e+01
   1.22987301e+01   1.23426417e+01   1.31114919e+01   1.31230533e+01
   1.31671901e+01   1.38284800e+01   1.38461338e+01   1.38465096e+01
   1.38473156e+01   1.38608827e+01   1.38660005e+01   1.38707158e+01
   1.38720506e+01   1.39123835e+01   1.43182663e+01   1.43295959e+01
   1.43341556e+01   1.47209466e+01   1.47824311e+01   1.48029499e+01
   1.48341782e+01   1.48785869e+01   1.49067016e+01   1.52092042e+01
   1.52569249e+01   1.54368828e+01   2.81844023e+01   2.81925747e+01
   2.82217700e+01   3.21320267e+01   7.01899925e+01]
nelec by numeric integration = [ 40.00001817  36.00001567]
    CPU time for vxc     58.01 sec, wall time      9.65 sec
    CPU time for vj and vk    607.04 sec, wall time    151.76 sec
Ecoul = 634.949030283  Exc = -43.9719265712
cycle= 5 E= -254.059360288654  delta_E= 0.0275  |g|= 0.471  |ddm|=  1.8
    CPU time for cycle= 5    665.99 sec, wall time    161.66 sec
  HOMO = -0.0652659569263571  LUMO = -0.055203845407427
                  Roothaan           | alpha              | beta
  Highest 2-occ = -0.225663318519043 | -0.225663318519043 | -0.225663318519043
  Lowest 0-occ =  -0.055203845407427 | -0.055203845407427 | -0.055203845407427
  1-occ =         -0.175679986174294 | -0.175679986174294 | -0.175679986174294
  1-occ =         -0.131587018899529 | -0.131587018899529 | -0.131587018899529
  1-occ =         -0.0988444476805727 | -0.0988444476805727 | -0.0988444476805727
  1-occ =         -0.0652659569263571 | -0.0652659569263571 | -0.0652659569263571
  Roothaan mo_energy =
[ -3.42979072e+00  -2.16607357e+00  -2.16473840e+00  -2.13872331e+00
  -1.18290398e+00  -1.18288186e+00  -1.17015634e+00  -1.17013531e+00
  -1.14596473e+00  -1.14594342e+00  -5.94586850e-01  -5.92332255e-01
  -5.81620306e-01  -5.80562370e-01  -5.62793993e-01  -5.61773029e-01
  -5.00766569e-01  -5.00375056e-01  -5.00351747e-01  -5.00137578e-01
  -4.89174146e-01  -4.89139231e-01  -4.88646617e-01  -4.87622688e-01
  -4.81129188e-01  -4.70165379e-01  -4.69933186e-01  -4.68989956e-01
  -4.68632010e-01  -4.30826768e-01  -4.20646811e-01  -4.15459396e-01
  -4.08296483e-01  -4.01437770e-01  -2.29387882e-01  -2.25663319e-01
  -1.75679986e-01  -1.31587019e-01  -9.88444477e-02  -6.52659569e-02
  -5.52038454e-02  -5.50242281e-02  -5.42901556e-02  -5.00940140e-02
  -4.65660993e-02  -2.99621353e-02  -2.53647404e-02  -1.99025055e-02
  -9.19207419e-03  -4.85116873e-03   3.14432175e-03   1.12050651e-02
   1.03395984e-01   1.18535336e-01   1.20177649e-01   1.21448452e-01
   1.25826053e-01   1.29277759e-01   1.35084401e-01   1.38703599e-01
   1.38940903e-01   1.53662735e-01   2.49061660e-01   2.54465273e-01
   2.57229690e-01   2.84331949e-01   2.87480472e-01   3.00689628e-01
   3.05057730e-01   3.08377131e-01   3.08832878e-01   3.12392711e-01
   3.13380299e-01   3.32420999e-01   3.73816180e-01   3.75230678e-01
   3.79956037e-01   3.87676769e-01   3.91445559e-01   3.95596457e-01
   4.29445571e-01   4.35585273e-01   4.37285340e-01   4.38624961e-01
   4.40922385e-01   4.74454495e-01   4.74585129e-01   4.80484098e-01
   5.03997244e-01   5.05461569e-01   5.08337886e-01   5.13106385e-01
   5.17900434e-01   5.20426334e-01   5.33686621e-01   5.53785372e-01
   5.60054056e-01   5.82356452e-01   5.90960262e-01   5.92153160e-01
   5.98564485e-01   6.14144489e-01   6.14984377e-01   6.19406645e-01
   6.32900485e-01   6.40542678e-01   6.51724318e-01   6.70695933e-01
   6.76067173e-01   6.76432926e-01   6.80950412e-01   6.82270029e-01
   7.30972508e-01   7.41270497e-01   7.42617699e-01   7.45053337e-01
   7.50287579e-01   7.50844118e-01   7.55744180e-01   7.59564830e-01
   7.86988627e-01   7.96723668e-01   8.02637583e-01   8.19418223e-01
   8.35017861e-01   8.37985286e-01   8.63468368e-01   8.68359116e-01
   8.68905897e-01   8.71084425e-01   8.74172238e-01   9.75637718e-01
   9.83899964e-01   9.84956851e-01   9.90741737e-01   9.92572313e-01
   9.98590994e-01   1.08999494e+00   1.12863221e+00   1.13904229e+00
   1.15446728e+00   1.17332403e+00   1.17453232e+00   1.17807181e+00
   1.17822225e+00   1.25829360e+00   1.26607018e+00   1.27004262e+00
   1.27076970e+00   1.30504739e+00   1.30839532e+00   1.35739359e+00
   1.37017035e+00   1.37060434e+00   1.52623763e+00   1.52730778e+00
   1.53463355e+00   1.53982058e+00   1.54518902e+00   1.55224856e+00
   1.55455193e+00   1.56255650e+00   1.56328778e+00   1.56485802e+00
   1.56792566e+00   1.57756973e+00   1.58061989e+00   1.62247177e+00
   1.62493918e+00   1.62751757e+00   1.64454314e+00   1.64618797e+00
   1.64827344e+00   1.65662360e+00   1.65939085e+00   1.66616850e+00
   1.70474816e+00   1.70870293e+00   1.71628869e+00   1.86332346e+00
   1.86652787e+00   1.87693140e+00   1.87936670e+00   1.91089220e+00
   1.92020081e+00   1.92033717e+00   1.92678468e+00   1.93464861e+00
   1.93946583e+00   1.95405505e+00   1.96243203e+00   1.96543634e+00
   1.97370678e+00   1.97583194e+00   1.97645421e+00   1.97873822e+00
   1.98709140e+00   2.01595563e+00   2.02194185e+00   2.02651608e+00
   2.04253124e+00   2.20904483e+00   2.22339409e+00   2.22855333e+00
   2.23859142e+00   2.27368700e+00   2.33588483e+00   2.34939401e+00
   2.36127393e+00   2.37412688e+00   2.37734528e+00   2.40067177e+00
   2.40629169e+00   2.41456991e+00   2.46359308e+00   2.46826772e+00
   2.47459337e+00   2.47934855e+00   2.54222017e+00   2.54780471e+00
   2.55273028e+00   2.65777291e+00   2.66031562e+00   2.66379514e+00
   2.66588729e+00   2.67250185e+00   2.67278727e+00   2.67400654e+00
   2.67519287e+00   2.68313720e+00   2.68770706e+00   2.69721104e+00
   2.70096830e+00   2.71262782e+00   2.73487964e+00   2.73638672e+00
   2.73865270e+00   2.76983798e+00   2.77957219e+00   2.80808354e+00
   2.81000697e+00   2.81640326e+00   2.83640903e+00   2.84653135e+00
   2.85152067e+00   2.85715271e+00   2.86258196e+00   2.86334140e+00
   2.86808889e+00   2.87012533e+00   2.87179143e+00   2.88468109e+00
   2.94370083e+00   2.95783892e+00   2.97033712e+00   2.97518547e+00
   2.98491755e+00   2.99517960e+00   2.99600592e+00   3.00673577e+00
   3.00748147e+00   3.00941507e+00   3.02611370e+00   3.04331357e+00
   3.04347206e+00   3.05433688e+00   3.06965242e+00   3.08419110e+00
   3.09046031e+00   3.10060554e+00   3.10803818e+00   3.13902578e+00
   3.14053342e+00   3.15234589e+00   3.15749228e+00   3.16991986e+00
   3.19294736e+00   3.25342430e+00   3.25557918e+00   3.25753337e+00
   3.26449057e+00   3.27097684e+00   3.44558224e+00   3.45891810e+00
   3.46926124e+00   3.48091814e+00   3.50256811e+00   3.50805813e+00
   3.54308037e+00   3.54368030e+00   3.55128452e+00   3.58142050e+00
   3.58177680e+00   3.59554119e+00   3.64595006e+00   3.65110051e+00
   3.65773587e+00   3.67107957e+00   3.67392949e+00   3.68293967e+00
   3.68617423e+00   3.69169307e+00   3.69266002e+00   3.72404204e+00
   3.72410572e+00   3.73480462e+00   3.74021451e+00   3.74141748e+00
   3.74612267e+00   3.75451382e+00   3.75460473e+00   3.76091613e+00
   3.76371843e+00   3.77392833e+00   3.77653151e+00   3.78757959e+00
   3.79347891e+00   3.79506655e+00   3.89266640e+00   3.89348176e+00
   3.91068312e+00   3.91621453e+00   4.08152989e+00   4.11469698e+00
   4.16248403e+00   4.17112834e+00   4.17473568e+00   4.17961171e+00
   4.20392547e+00   4.22377659e+00   4.24911762e+00   4.61085607e+00
   4.63016161e+00   4.79044500e+00   4.80084123e+00   4.80788616e+00
   5.04857579e+00   5.04860771e+00   5.04905580e+00   5.04912848e+00
   5.06077030e+00   5.06078230e+00   5.06129768e+00   5.06137328e+00
   5.07925596e+00   5.07933203e+00   5.07983103e+00   5.07986124e+00
   5.09496950e+00   5.12724898e+00   5.18024826e+00   5.42917958e+00
   5.43975547e+00   5.46956619e+00   5.47268576e+00   5.47653800e+00
   5.47865096e+00   5.48291253e+00   5.48381218e+00   5.48419205e+00
   5.49061437e+00   5.50442879e+00   5.50445576e+00   5.51034556e+00
   5.54496770e+00   5.56143277e+00   5.90030478e+00   5.92998539e+00
   5.93075711e+00   5.94769631e+00   5.94909541e+00   5.95213923e+00
   5.95816223e+00   5.96008531e+00   5.96195286e+00   5.96561987e+00
   5.97202853e+00   5.97270766e+00   6.02118494e+00   6.02922266e+00
   6.02972477e+00   6.03354818e+00   6.03907876e+00   6.04369163e+00
   6.28544985e+00   6.36625503e+00   6.36829613e+00   6.37189326e+00
   6.37544487e+00   6.38172315e+00   6.38422142e+00   6.39707862e+00
   6.40919138e+00   6.40929034e+00   6.41333156e+00   6.41599717e+00
   6.41815051e+00   6.42049668e+00   6.42332182e+00   6.42795437e+00
   6.42819289e+00   6.42841282e+00   6.43145941e+00   6.44595872e+00
   6.44657110e+00   6.44846495e+00   6.44993219e+00   6.45022687e+00
   6.45439489e+00   6.48457305e+00   6.50458060e+00   6.50701309e+00
   6.66718557e+00   6.68418249e+00   6.70007296e+00   6.71252479e+00
   6.71395952e+00   6.72804702e+00   6.74184058e+00   6.89601178e+00
   6.95657102e+00   6.96860002e+00   6.98439798e+00   6.99482314e+00
   7.00061595e+00   7.00763449e+00   7.00989099e+00   7.01514381e+00
   7.02166270e+00   7.02246694e+00   7.03872567e+00   7.07665133e+00
   7.07924386e+00   7.08748296e+00   7.09375178e+00   7.14058127e+00
   7.14632195e+00   7.15468286e+00   7.24349991e+00   8.23221686e+00
   8.25978880e+00   8.26015842e+00   8.26522006e+00   8.27846654e+00
   8.36331601e+00   9.76711831e+00   9.79973377e+00   9.84952264e+00
   1.04889957e+01   1.05290656e+01   1.10990004e+01   1.20185625e+01
   1.20370169e+01   1.20462851e+01   1.20467288e+01   1.22982619e+01
   1.23076333e+01   1.23486823e+01   1.31217092e+01   1.31285385e+01
   1.31694186e+01   1.38368669e+01   1.38518680e+01   1.38520207e+01
   1.38552393e+01   1.38650478e+01   1.38712651e+01   1.38727161e+01
   1.38763019e+01   1.39162352e+01   1.43290187e+01   1.43389676e+01
   1.43418176e+01   1.47541390e+01   1.47793716e+01   1.48186764e+01
   1.48453654e+01   1.48686481e+01   1.48865313e+01   1.52266752e+01
   1.52597351e+01   1.54400275e+01   2.81988851e+01   2.82044085e+01
   2.82313401e+01   3.21414812e+01   7.02044490e+01]
nelec by numeric integration = [ 40.00002457  36.00001557]
    CPU time for vxc     53.26 sec, wall time      9.18 sec
    CPU time for vj and vk    639.33 sec, wall time    159.83 sec
Ecoul = 636.610967093  Exc = -44.0925968918
cycle= 6 E= -254.135818976697  delta_E= -0.0765  |g|= 0.217  |ddm|= 1.72
    CPU time for cycle= 6    693.70 sec, wall time    169.29 sec
  HOMO = -0.0616171349416212  LUMO = -0.054596167075888
                  Roothaan           | alpha              | beta
  Highest 2-occ = -0.233093542377522 | -0.233093542377522 | -0.233093542377522
  Lowest 0-occ =  -0.054596167075888 | -0.054596167075888 | -0.054596167075888
  1-occ =         -0.183128043478858 | -0.183128043478858 | -0.183128043478858
  1-occ =         -0.140315279718213 | -0.140315279718213 | -0.140315279718213
  1-occ =         -0.107059051076894 | -0.107059051076894 | -0.107059051076894
  1-occ =         -0.0616171349416212 | -0.0616171349416212 | -0.0616171349416212
  Roothaan mo_energy =
[ -3.43783086e+00  -2.17498167e+00  -2.17198821e+00  -2.14707126e+00
  -1.16548083e+00  -1.16545596e+00  -1.16035207e+00  -1.16032511e+00
  -1.15902261e+00  -1.15901004e+00  -5.84705960e-01  -5.80116153e-01
  -5.75607546e-01  -5.74737239e-01  -5.72841462e-01  -5.71776214e-01
  -4.88207483e-01  -4.88043224e-01  -4.87410661e-01  -4.87305656e-01
  -4.84128927e-01  -4.83376768e-01  -4.81371299e-01  -4.80422541e-01
  -4.79840255e-01  -4.79706308e-01  -4.79686164e-01  -4.78782436e-01
  -4.77006235e-01  -4.21624550e-01  -4.19694589e-01  -4.15920897e-01
  -4.09947101e-01  -4.03396813e-01  -2.33473750e-01  -2.33093542e-01
  -1.83128043e-01  -1.40315280e-01  -1.07059051e-01  -6.16171349e-02
  -5.45961671e-02  -5.27694508e-02  -5.00104810e-02  -4.93251172e-02
  -4.60760181e-02  -2.70536840e-02  -2.55856609e-02  -2.05111723e-02
  -9.19440752e-03   3.17550106e-03   6.41562445e-03   7.19310840e-03
   1.00955354e-01   1.19866750e-01   1.20979486e-01   1.22415010e-01
   1.26152030e-01   1.28070611e-01   1.37285104e-01   1.38649013e-01
   1.38870047e-01   1.53366384e-01   2.49211278e-01   2.54858909e-01
   2.58163702e-01   2.84671104e-01   2.87941064e-01   3.00272940e-01
   3.02480903e-01   3.08981060e-01   3.11663424e-01   3.12176217e-01
   3.12744967e-01   3.32447799e-01   3.75112871e-01   3.77219552e-01
   3.80511389e-01   3.88854333e-01   3.93384640e-01   3.94573431e-01
   4.31121011e-01   4.35356738e-01   4.38554497e-01   4.39973544e-01
   4.41264652e-01   4.72994794e-01   4.77278382e-01   4.79294061e-01
   5.04298120e-01   5.07621386e-01   5.10729908e-01   5.15082898e-01
   5.18403915e-01   5.18678246e-01   5.34256784e-01   5.57376071e-01
   5.58434398e-01   5.84111651e-01   5.93601522e-01   5.94189362e-01
   5.96008329e-01   6.12154332e-01   6.14313904e-01   6.18082933e-01
   6.33819142e-01   6.41514619e-01   6.51710632e-01   6.74120813e-01
   6.75353078e-01   6.80027319e-01   6.80185193e-01   6.82022114e-01
   7.32825689e-01   7.43410822e-01   7.46055867e-01   7.47659511e-01
   7.50184652e-01   7.52517283e-01   7.53408983e-01   7.60323531e-01
   7.86731888e-01   7.95696428e-01   8.03588011e-01   8.19651014e-01
   8.30470337e-01   8.39345118e-01   8.65268048e-01   8.69053620e-01
   8.70749899e-01   8.71345129e-01   8.73547412e-01   9.80491871e-01
   9.82316421e-01   9.88149943e-01   9.89504006e-01   9.94108541e-01
   9.98550073e-01   1.09006253e+00   1.12733321e+00   1.14026281e+00
   1.15453997e+00   1.17299756e+00   1.17555886e+00   1.17832852e+00
   1.17886315e+00   1.25668688e+00   1.26586052e+00   1.26993334e+00
   1.27014054e+00   1.30601597e+00   1.30910568e+00   1.36185627e+00
   1.36615050e+00   1.37387776e+00   1.53089953e+00   1.53377517e+00
   1.53663486e+00   1.53984985e+00   1.54403354e+00   1.55744368e+00
   1.56090609e+00   1.56324309e+00   1.56329170e+00   1.56572629e+00
   1.56785138e+00   1.57063828e+00   1.58284523e+00   1.62436025e+00
   1.62636205e+00   1.62962137e+00   1.64536200e+00   1.64743210e+00
   1.64957157e+00   1.65755397e+00   1.66048238e+00   1.66529659e+00
   1.71001413e+00   1.71357385e+00   1.71510931e+00   1.86379050e+00
   1.87393354e+00   1.87674848e+00   1.87965180e+00   1.91095962e+00
   1.92079810e+00   1.92262528e+00   1.93286688e+00   1.93329693e+00
   1.93642920e+00   1.95863346e+00   1.96049006e+00   1.96722061e+00
   1.97600036e+00   1.97612705e+00   1.97820665e+00   1.98256550e+00
   1.98665034e+00   2.01843436e+00   2.02142112e+00   2.02470063e+00
   2.04337307e+00   2.20745043e+00   2.22149224e+00   2.22600432e+00
   2.23602921e+00   2.27464453e+00   2.33865052e+00   2.34853434e+00
   2.36575198e+00   2.37396539e+00   2.37913220e+00   2.40529742e+00
   2.40631329e+00   2.41588598e+00   2.46349262e+00   2.47408320e+00
   2.47491670e+00   2.47830374e+00   2.54643675e+00   2.54936182e+00
   2.55274860e+00   2.66288854e+00   2.66693087e+00   2.66857106e+00
   2.66909822e+00   2.67124011e+00   2.67191892e+00   2.68057500e+00
   2.68222205e+00   2.68429462e+00   2.69178859e+00   2.69621807e+00
   2.69686075e+00   2.71129198e+00   2.73656167e+00   2.73733616e+00
   2.74062544e+00   2.77184115e+00   2.78045586e+00   2.81056197e+00
   2.81308930e+00   2.81513595e+00   2.84498358e+00   2.85765787e+00
   2.85798306e+00   2.86112282e+00   2.86195715e+00   2.86380315e+00
   2.86635152e+00   2.87294756e+00   2.87553178e+00   2.87619757e+00
   2.94316741e+00   2.96499893e+00   2.96674131e+00   2.98054434e+00
   2.99236743e+00   2.99488702e+00   2.99674978e+00   3.01031367e+00
   3.01057785e+00   3.01216096e+00   3.03553266e+00   3.03952457e+00
   3.05736022e+00   3.05877885e+00   3.06240940e+00   3.08858285e+00
   3.09771040e+00   3.10362287e+00   3.10737275e+00   3.13817735e+00
   3.14877470e+00   3.15244411e+00   3.15884346e+00   3.16299433e+00
   3.19386746e+00   3.25691254e+00   3.25863992e+00   3.26504368e+00
   3.26754356e+00   3.26822645e+00   3.45307161e+00   3.46308245e+00
   3.46503687e+00   3.49008373e+00   3.49737737e+00   3.51325879e+00
   3.54091886e+00   3.54501063e+00   3.54749481e+00   3.57070700e+00
   3.58504715e+00   3.59279388e+00   3.65322721e+00   3.65449979e+00
   3.65753704e+00   3.67419266e+00   3.67560638e+00   3.67682961e+00
   3.67923711e+00   3.68964121e+00   3.69149218e+00   3.72194377e+00
   3.73081306e+00   3.73416632e+00   3.74385509e+00   3.74444202e+00
   3.74617430e+00   3.75333869e+00   3.75407101e+00   3.75804850e+00
   3.76983122e+00   3.77147697e+00   3.77515815e+00   3.79173951e+00
   3.79319049e+00   3.79668848e+00   3.89757835e+00   3.89865450e+00
   3.90768816e+00   3.91187946e+00   4.08268987e+00   4.11480876e+00
   4.16254064e+00   4.17045810e+00   4.17456331e+00   4.17823657e+00
   4.20109219e+00   4.21868906e+00   4.24919143e+00   4.61047004e+00
   4.63027592e+00   4.79452212e+00   4.80060287e+00   4.80314076e+00
   5.06047862e+00   5.06053034e+00   5.06094583e+00   5.06095541e+00
   5.06646001e+00   5.06650809e+00   5.06676491e+00   5.06714040e+00
   5.06863536e+00   5.06864700e+00   5.06925742e+00   5.06940825e+00
   5.09075877e+00   5.12345964e+00   5.18035635e+00   5.42113213e+00
   5.43263661e+00   5.46695667e+00   5.48573378e+00   5.48581099e+00
   5.48750683e+00   5.49122251e+00   5.49133832e+00   5.49161635e+00
   5.49268779e+00   5.49277193e+00   5.49743747e+00   5.49907871e+00
   5.55266834e+00   5.55591711e+00   5.90499664e+00   5.93753243e+00
   5.93923627e+00   5.94275913e+00   5.95509314e+00   5.95824652e+00
   5.96192837e+00   5.96288966e+00   5.96729742e+00   5.96802766e+00
   5.97138996e+00   5.97206991e+00   6.02794319e+00   6.02838081e+00
   6.03065174e+00   6.03516173e+00   6.03783686e+00   6.04187734e+00
   6.28658929e+00   6.38051912e+00   6.38097557e+00   6.38102616e+00
   6.38257213e+00   6.38258915e+00   6.38566465e+00   6.40432083e+00
   6.40669880e+00   6.41014469e+00   6.42259365e+00   6.42888958e+00
   6.42915344e+00   6.43088295e+00   6.43210696e+00   6.43429489e+00
   6.43551331e+00   6.43560268e+00   6.43669750e+00   6.43847328e+00
   6.43952962e+00   6.44075756e+00   6.44097618e+00   6.44294345e+00
   6.44325856e+00   6.49447697e+00   6.49851760e+00   6.51127773e+00
   6.67576845e+00   6.68094166e+00   6.70733465e+00   6.71184522e+00
   6.72430368e+00   6.72996886e+00   6.73593483e+00   6.89866925e+00
   6.97193797e+00   6.97533396e+00   6.97878753e+00   7.00135722e+00
   7.00386553e+00   7.00739912e+00   7.01712073e+00   7.01857764e+00
   7.02247943e+00   7.03410353e+00   7.03907543e+00   7.07702717e+00
   7.08208852e+00   7.08724705e+00   7.09230034e+00   7.14549676e+00
   7.14863272e+00   7.15171882e+00   7.24133754e+00   8.24520073e+00
   8.25258516e+00   8.26773700e+00   8.26916439e+00   8.28018640e+00
   8.36365845e+00   9.77225225e+00   9.79692073e+00   9.85782115e+00
   1.04915637e+01   1.05330553e+01   1.11033635e+01   1.20115930e+01
   1.20301329e+01   1.20392384e+01   1.20396774e+01   1.22912212e+01
   1.23014556e+01   1.23419918e+01   1.31132861e+01   1.31213017e+01
   1.31616162e+01   1.38282145e+01   1.38428224e+01   1.38430728e+01
   1.38465734e+01   1.38559393e+01   1.38614658e+01   1.38643956e+01
   1.38671026e+01   1.39073717e+01   1.43223241e+01   1.43321487e+01
   1.43356620e+01   1.47589193e+01   1.47770547e+01   1.48213116e+01
   1.48613028e+01   1.48706850e+01   1.48802604e+01   1.52218654e+01
   1.52557784e+01   1.54352647e+01   2.81933265e+01   2.81995888e+01
   2.82259476e+01   3.21370532e+01   7.02023354e+01]
nelec by numeric integration = [ 40.00002597  36.00001565]
    CPU time for vxc     55.62 sec, wall time      9.42 sec
    CPU time for vj and vk    682.25 sec, wall time    171.97 sec
Ecoul = 636.798341782  Exc = -44.0812846605
cycle= 7 E= -254.142949291877  delta_E= -0.00713  |g|= 0.155  |ddm|= 0.181
    CPU time for cycle= 7    738.98 sec, wall time    181.67 sec
  HOMO = -0.0613438126775681  LUMO = -0.0573163601714718
                  Roothaan           | alpha              | beta
  Highest 2-occ =  -0.23132262632125 |  -0.23132262632125 |  -0.23132262632125
  Lowest 0-occ =  -0.0573163601714718 | -0.0573163601714718 | -0.0573163601714718
  1-occ =         -0.181431743049967 | -0.181431743049967 | -0.181431743049967
  1-occ =         -0.139180804832801 | -0.139180804832801 | -0.139180804832801
  1-occ =         -0.105069798704985 | -0.105069798704985 | -0.105069798704985
  1-occ =         -0.0613438126775681 | -0.0613438126775681 | -0.0613438126775681
  Roothaan mo_energy =
[ -3.43549926e+00  -2.17337649e+00  -2.16935657e+00  -2.14475469e+00
  -1.17069916e+00  -1.17067576e+00  -1.16096348e+00  -1.16094143e+00
  -1.15550689e+00  -1.15548792e+00  -5.87567183e-01  -5.84232099e-01
  -5.76584924e-01  -5.75361960e-01  -5.69977480e-01  -5.69773709e-01
  -4.92087585e-01  -4.92072736e-01  -4.91747624e-01  -4.91698772e-01
  -4.83448549e-01  -4.83388485e-01  -4.81738921e-01  -4.81485460e-01
  -4.80550610e-01  -4.77279230e-01  -4.76876376e-01  -4.76408308e-01
  -4.74823421e-01  -4.27295110e-01  -4.18798337e-01  -4.12935871e-01
  -4.12308631e-01  -4.01085342e-01  -2.32365835e-01  -2.31322626e-01
  -1.81431743e-01  -1.39180805e-01  -1.05069799e-01  -6.13438127e-02
  -5.73163602e-02  -5.44169337e-02  -5.14283333e-02  -5.10382901e-02
  -4.53286808e-02  -2.76994214e-02  -2.59631849e-02  -1.87593403e-02
  -9.33606906e-03   1.29092247e-03   6.43792546e-03   8.66490595e-03
   1.00754647e-01   1.19287750e-01   1.20559714e-01   1.21158098e-01
   1.26213460e-01   1.29318503e-01   1.37202862e-01   1.38153410e-01
   1.38776996e-01   1.53132430e-01   2.48646438e-01   2.54449648e-01
   2.57854649e-01   2.84199027e-01   2.87952670e-01   2.99036706e-01
   3.02191709e-01   3.08897772e-01   3.11662133e-01   3.12399388e-01
   3.13150170e-01   3.32327617e-01   3.73633599e-01   3.76498491e-01
   3.81853237e-01   3.87844785e-01   3.94164799e-01   3.94241986e-01
   4.29654900e-01   4.35964050e-01   4.37889270e-01   4.39607734e-01
   4.42060015e-01   4.71787329e-01   4.76925830e-01   4.80172383e-01
   5.03098882e-01   5.07249376e-01   5.10395295e-01   5.14123479e-01
   5.18521430e-01   5.19764842e-01   5.33725746e-01   5.56139970e-01
   5.58997652e-01   5.83618093e-01   5.92252028e-01   5.94869273e-01
   5.95515881e-01   6.11239176e-01   6.14018888e-01   6.18500957e-01
   6.33616875e-01   6.40025639e-01   6.52338954e-01   6.71902619e-01
   6.74078487e-01   6.79659362e-01   6.82054319e-01   6.83383486e-01
   7.32372710e-01   7.42100588e-01   7.43923021e-01   7.48572565e-01
[...]
   1.23039410e+01   1.23387675e+01   1.31166396e+01   1.31240727e+01
   1.31571603e+01   1.38344420e+01   1.38446646e+01   1.38447139e+01
   1.38518889e+01   1.38552056e+01   1.38606051e+01   1.38606309e+01
   1.38657393e+01   1.39055362e+01   1.43256787e+01   1.43325427e+01
   1.43357600e+01   1.47669964e+01   1.47693781e+01   1.48158000e+01
   1.48571344e+01   1.48731088e+01   1.48754217e+01   1.52280782e+01
   1.52528590e+01   1.54330268e+01   2.81969407e+01   2.82028749e+01
   2.82236774e+01   3.21379103e+01   7.02036250e+01]
nelec by numeric integration = [ 40.00002684  36.00001505]
    CPU time for vxc     67.68 sec, wall time     11.30 sec
    CPU time for vj and vk    598.33 sec, wall time    149.68 sec
Ecoul = 635.863683856  Exc = -44.0127778643
cycle= 40 E= -254.158112055739  delta_E= -1.37e-09  |g|= 3.09e-05  |ddm|= 0.000868
    CPU time for cycle= 40    667.48 sec, wall time    161.35 sec
  HOMO = -0.0608750098312421  LUMO = -0.0568877596491032
                  Roothaan           | alpha              | beta
  Highest 2-occ =   -0.2336185392338 |   -0.2336185392338 |   -0.2336185392338
  Lowest 0-occ =  -0.0568877596491032 | -0.0568877596491032 | -0.0568877596491032
  1-occ =         -0.186484187615115 | -0.186484187615115 | -0.186484187615115
  1-occ =         -0.135954509573551 | -0.135954509573551 | -0.135954509573551
  1-occ =         -0.111248084723506 | -0.111248084723506 | -0.111248084723506
  1-occ =         -0.0608750098312421 | -0.0608750098312421 | -0.0608750098312421
  Roothaan mo_energy =
[ -3.43675749e+00  -2.17028759e+00  -2.17025156e+00  -2.15093347e+00
  -1.18175458e+00  -1.18173159e+00  -1.15547904e+00  -1.15537881e+00
  -1.15534449e+00  -1.15528565e+00  -5.95745753e-01  -5.93578233e-01
  -5.73657755e-01  -5.69703459e-01  -5.69588545e-01  -5.67817808e-01
  -5.01189138e-01  -5.01153063e-01  -5.00918826e-01  -5.00878952e-01
  -4.82728577e-01  -4.79667805e-01  -4.79397990e-01  -4.76990215e-01
  -4.76634790e-01  -4.76567082e-01  -4.76342240e-01  -4.75913380e-01
  -4.73004759e-01  -4.32164490e-01  -4.15599280e-01  -4.15345314e-01
  -4.12056782e-01  -4.03585029e-01  -2.33656870e-01  -2.33618539e-01
  -1.86484188e-01  -1.35954510e-01  -1.11248085e-01  -6.08750098e-02
  -5.68877596e-02  -5.54053183e-02  -5.45987930e-02  -5.45515820e-02
  -4.36097103e-02  -2.78639831e-02  -2.70692131e-02  -1.78989033e-02
  -9.65298337e-03   2.53243074e-03   2.61908696e-03   8.63006314e-03
   1.00161745e-01   1.18637791e-01   1.19010329e-01   1.21266436e-01
   1.26551665e-01   1.29543300e-01   1.35583058e-01   1.36708174e-01
   1.40025801e-01   1.52326371e-01   2.48496400e-01   2.53865184e-01
   2.55837765e-01   2.84757339e-01   2.86472470e-01   3.01477770e-01
   3.02993087e-01   3.03394165e-01   3.11102717e-01   3.11929339e-01
   3.13125906e-01   3.31894829e-01   3.74230422e-01   3.74385472e-01
   3.82328792e-01   3.86919355e-01   3.91511229e-01   3.96822402e-01
   4.28896102e-01   4.36383870e-01   4.37680596e-01   4.38019815e-01
   4.40673872e-01   4.74529932e-01   4.74889367e-01   4.76954111e-01
   5.05885832e-01   5.07038430e-01   5.07145857e-01   5.11136923e-01
   5.14742413e-01   5.22411079e-01   5.33592892e-01   5.53600167e-01
   5.59055986e-01   5.82140000e-01   5.89615268e-01   5.94984894e-01
   5.97021001e-01   6.12383149e-01   6.14396565e-01   6.15390341e-01
   6.32346478e-01   6.44418106e-01   6.46258995e-01   6.72393594e-01
   6.76797891e-01   6.77293861e-01   6.80728189e-01   6.80958831e-01
   7.31885893e-01   7.40798418e-01   7.43747519e-01   7.45406059e-01
   7.49861609e-01   7.52257103e-01   7.56008791e-01   7.58147075e-01
   7.88510690e-01   7.96645280e-01   7.98661920e-01   8.23670753e-01
   8.29714309e-01   8.32510655e-01   8.62811801e-01   8.67924766e-01
   8.69255103e-01   8.71092591e-01   8.71744585e-01   9.76677211e-01
   9.85316601e-01   9.90109513e-01   9.90305698e-01   9.90992565e-01
   9.92493666e-01   1.08919516e+00   1.13149882e+00   1.13467543e+00
   1.15917188e+00   1.16530696e+00   1.17521414e+00   1.17746220e+00
   1.17759394e+00   1.25834196e+00   1.26208541e+00   1.26504748e+00
   1.27066626e+00   1.30602811e+00   1.30762484e+00   1.36281404e+00
   1.36671699e+00   1.36958517e+00   1.52559539e+00   1.52794479e+00
   1.53787858e+00   1.53811836e+00   1.54625581e+00   1.55259990e+00
   1.55354364e+00   1.56188539e+00   1.56222399e+00   1.56526906e+00
   1.57222264e+00   1.57297723e+00   1.58117468e+00   1.62399702e+00
   1.62431964e+00   1.62553923e+00   1.64308917e+00   1.64857306e+00
   1.64914428e+00   1.65688465e+00   1.65979487e+00   1.66389091e+00
   1.70901086e+00   1.70923041e+00   1.71596894e+00   1.86885828e+00
   1.86897275e+00   1.87119483e+00   1.87833052e+00   1.90903941e+00
   1.91686477e+00   1.91688128e+00   1.93214918e+00   1.93370979e+00
   1.93847451e+00   1.95438608e+00   1.96245037e+00   1.96829623e+00
   1.96907927e+00   1.97714107e+00   1.97820665e+00   1.98005945e+00
   1.98627116e+00   2.01664246e+00   2.02069341e+00   2.02449889e+00
   2.04273027e+00   2.20365872e+00   2.22150877e+00   2.22585893e+00
   2.24051996e+00   2.26610682e+00   2.33907279e+00   2.34492210e+00
   2.36687097e+00   2.37168870e+00   2.37672933e+00   2.39933274e+00
   2.41038226e+00   2.41180975e+00   2.46484783e+00   2.47025211e+00
   2.47094814e+00   2.47910169e+00   2.54397660e+00   2.54433018e+00
   2.55478095e+00   2.65784951e+00   2.65869520e+00   2.66696406e+00
   2.66784281e+00   2.67132299e+00   2.67315661e+00   2.67335188e+00
   2.67575378e+00   2.68820858e+00   2.69489027e+00   2.69609797e+00
   2.69821020e+00   2.71033598e+00   2.73574749e+00   2.73577362e+00
   2.73925678e+00   2.77413322e+00   2.77642812e+00   2.80693666e+00
   2.81218195e+00   2.81674087e+00   2.83451201e+00   2.84470746e+00
   2.85877381e+00   2.85913129e+00   2.86397732e+00   2.86520585e+00
   2.86522988e+00   2.86715335e+00   2.87962021e+00   2.88033593e+00
   2.94291681e+00   2.95737545e+00   2.97071600e+00   2.97597163e+00
   2.98635934e+00   2.98677542e+00   3.00249450e+00   3.00698446e+00
   3.00809544e+00   3.00935624e+00   3.03054338e+00   3.04196467e+00
   3.04441110e+00   3.06369323e+00   3.06381175e+00   3.08619036e+00
   3.09461975e+00   3.10128721e+00   3.10677852e+00   3.14312813e+00
   3.14403854e+00   3.14564601e+00   3.16236188e+00   3.16479404e+00
   3.18200611e+00   3.25458371e+00   3.25875618e+00   3.25956359e+00
   3.26194468e+00   3.27176636e+00   3.44913732e+00   3.45832408e+00
   3.46790865e+00   3.49236139e+00   3.49797303e+00   3.50274177e+00
   3.54046454e+00   3.54349974e+00   3.54351815e+00   3.57029616e+00
   3.58547337e+00   3.59070098e+00   3.64778236e+00   3.64843705e+00
   3.66077530e+00   3.67792728e+00   3.67815814e+00   3.67989346e+00
   3.68020631e+00   3.68159645e+00   3.68243425e+00   3.72643939e+00
   3.72717257e+00   3.72945630e+00   3.74151811e+00   3.74578025e+00
   3.74701232e+00   3.74883429e+00   3.75234121e+00   3.75474103e+00
   3.76915580e+00   3.77064181e+00   3.77535518e+00   3.78679508e+00
   3.78715087e+00   3.80062823e+00   3.88288337e+00   3.90414987e+00
   3.90960784e+00   3.91319995e+00   4.08929827e+00   4.10856329e+00
   4.16074672e+00   4.16703235e+00   4.17418955e+00   4.17530754e+00
   4.20458326e+00   4.22178030e+00   4.23797086e+00   4.61589715e+00
   4.62255662e+00   4.79058505e+00   4.79923443e+00   4.80472151e+00
   5.04695750e+00   5.04697071e+00   5.04748841e+00   5.04750967e+00
   5.07162329e+00   5.07174143e+00   5.07185812e+00   5.07185922e+00
   5.07187828e+00   5.07235733e+00   5.07238372e+00   5.07313917e+00
   5.09191409e+00   5.12117606e+00   5.17824233e+00   5.42379456e+00
   5.43485656e+00   5.46119349e+00   5.47068314e+00   5.47109438e+00
   5.47757900e+00   5.48440810e+00   5.49557266e+00   5.49648345e+00
   5.49663864e+00   5.49742335e+00   5.50159875e+00   5.50338334e+00
   5.54677695e+00   5.55965020e+00   5.90032244e+00   5.93511991e+00
   5.93962058e+00   5.94524190e+00   5.94645992e+00   5.95403011e+00
   5.95588433e+00   5.96139469e+00   5.96178705e+00   5.96841811e+00
   5.96988442e+00   5.97626377e+00   6.02507103e+00   6.02887358e+00
   6.03181809e+00   6.03423423e+00   6.03449490e+00   6.04379868e+00
   6.28421170e+00   6.37059580e+00   6.37083360e+00   6.37219905e+00
   6.37298225e+00   6.38694695e+00   6.39158491e+00   6.40532019e+00
   6.40651643e+00   6.40800493e+00   6.40970704e+00   6.41625731e+00
   6.41852622e+00   6.41908353e+00   6.43436729e+00   6.43736704e+00
   6.43814601e+00   6.43930893e+00   6.43943827e+00   6.44002108e+00
   6.44006554e+00   6.44197517e+00   6.44376981e+00   6.44478715e+00
   6.44842941e+00   6.49437885e+00   6.50097961e+00   6.50317069e+00
   6.66990932e+00   6.68366726e+00   6.70215513e+00   6.71353478e+00
   6.71595160e+00   6.73436119e+00   6.73483266e+00   6.89684642e+00
   6.95954767e+00   6.97786974e+00   6.98021391e+00   6.99523683e+00
   7.00183896e+00   7.00811969e+00   7.01054437e+00   7.01173968e+00
   7.02290365e+00   7.03008891e+00   7.04094513e+00   7.07701100e+00
   7.08352116e+00   7.08411174e+00   7.09167563e+00   7.14582914e+00
   7.14808801e+00   7.15003873e+00   7.23999541e+00   8.24809916e+00
   8.25426957e+00   8.25814130e+00   8.26553086e+00   8.27500941e+00
   8.36413208e+00   9.77812089e+00   9.80209100e+00   9.83921157e+00
   1.04976089e+01   1.05240420e+01   1.10987559e+01   1.20129473e+01
   1.20317816e+01   1.20406095e+01   1.20410087e+01   1.22944916e+01
   1.23039400e+01   1.23387664e+01   1.31166388e+01   1.31240718e+01
   1.31571594e+01   1.38344412e+01   1.38446637e+01   1.38447130e+01
   1.38518880e+01   1.38552046e+01   1.38606041e+01   1.38606299e+01
   1.38657383e+01   1.39055352e+01   1.43256776e+01   1.43325417e+01
   1.43357590e+01   1.47669959e+01   1.47693776e+01   1.48157997e+01
   1.48571340e+01   1.48731085e+01   1.48754217e+01   1.52280775e+01
   1.52528581e+01   1.54330260e+01   2.81969397e+01   2.82028738e+01
   2.82236762e+01   3.21379094e+01   7.02036240e+01]
nelec by numeric integration = [ 40.00002684  36.00001505]
    CPU time for vxc     43.88 sec, wall time      7.45 sec
    CPU time for vj and vk    587.24 sec, wall time    146.81 sec
Ecoul = 635.863737508  Exc = -44.0127838419
cycle= 41 E= -254.158112055862  delta_E= -1.23e-10  |g|= 1.6e-05  |ddm|= 0.000895
    CPU time for cycle= 41    632.24 sec, wall time    154.54 sec
  HOMO = -0.0608746288796835  LUMO = -0.0568878727008985
                  Roothaan           | alpha              | beta
  Highest 2-occ = -0.233617337354935 | -0.257823805652372 | -0.209410869077246
  Lowest 0-occ =  -0.0568878727008985 | -0.0613446306806167 | -0.0524311210675625
  1-occ =         -0.186482887293447 | -0.311546169456781 | -0.0614196917894743
  1-occ =         -0.135952910936997 | -0.279273886629959 | 0.00736781318664694
  1-occ =         -0.111246411738219 | -0.264274710204926 | 0.0417816050651074
  1-occ =         -0.0608746288796835 |  -0.11499790905935 | -0.00675138112760457
  Roothaan mo_energy =
[ -3.43675551e+00  -2.17028572e+00  -2.17024965e+00  -2.15093149e+00
  -1.18175468e+00  -1.18173170e+00  -1.15547936e+00  -1.15537820e+00
  -1.15534549e+00  -1.15528537e+00  -5.95745746e-01  -5.93578220e-01
  -5.73657809e-01  -5.69703573e-01  -5.69588586e-01  -5.67817871e-01
  -5.01189219e-01  -5.01153136e-01  -5.00918907e-01  -5.00879028e-01
  -4.82728568e-01  -4.79667891e-01  -4.79398048e-01  -4.76990253e-01
  -4.76634810e-01  -4.76567242e-01  -4.76342304e-01  -4.75913421e-01
  -4.73004811e-01  -4.32164711e-01  -4.15599159e-01  -4.15345167e-01
  -4.12056852e-01  -4.03584872e-01  -2.33655570e-01  -2.33617337e-01
  -1.86482887e-01  -1.35952911e-01  -1.11246412e-01  -6.08746289e-02
  -5.68878727e-02  -5.54054277e-02  -5.45985950e-02  -5.45514137e-02
  -4.36097006e-02  -2.78640119e-02  -2.70692267e-02  -1.78988848e-02
  -9.65296607e-03   2.53247549e-03   2.61887084e-03   8.63010486e-03
   1.00161989e-01   1.18637779e-01   1.19010287e-01   1.21266436e-01
   1.26551706e-01   1.29543344e-01   1.35583015e-01   1.36708139e-01
   1.40025811e-01   1.52326432e-01   2.48496480e-01   2.53865237e-01
   2.55837829e-01   2.84757365e-01   2.86472446e-01   3.01477894e-01
   3.02993182e-01   3.03394281e-01   3.11102723e-01   3.11929344e-01
   3.13125904e-01   3.31894827e-01   3.74230453e-01   3.74385346e-01
   3.82328811e-01   3.86919307e-01   3.91511230e-01   3.96822405e-01
   4.28896075e-01   4.36383889e-01   4.37680570e-01   4.38019781e-01
   4.40673911e-01   4.74530140e-01   4.74889334e-01   4.76954232e-01
   5.05885846e-01   5.07038359e-01   5.07145858e-01   5.11136850e-01
   5.14742457e-01   5.22411130e-01   5.33592914e-01   5.53600143e-01
   5.59056021e-01   5.82139949e-01   5.89615203e-01   5.94984919e-01
   5.97021033e-01   6.12383345e-01   6.14396780e-01   6.15390535e-01
   6.32346478e-01   6.44418240e-01   6.46259011e-01   6.72393492e-01
   6.76797875e-01   6.77293781e-01   6.80728256e-01   6.80958861e-01
   7.31885854e-01   7.40798308e-01   7.43747398e-01   7.45406076e-01
   7.49861667e-01   7.52257123e-01   7.56008850e-01   7.58147182e-01
   7.88510757e-01   7.96645353e-01   7.98661929e-01   8.23670982e-01
   8.29714463e-01   8.32510863e-01   8.62811775e-01   8.67924769e-01
   8.69255112e-01   8.71092634e-01   8.71744598e-01   9.76677123e-01
   9.85316607e-01   9.90109532e-01   9.90305815e-01   9.90992472e-01
   9.92493659e-01   1.08919521e+00   1.13149900e+00   1.13467545e+00
   1.15917207e+00   1.16530712e+00   1.17521414e+00   1.17746219e+00
   1.17759396e+00   1.25834213e+00   1.26208565e+00   1.26504770e+00
   1.27066641e+00   1.30602815e+00   1.30762483e+00   1.36281396e+00
   1.36671705e+00   1.36958513e+00   1.52559534e+00   1.52794476e+00
   1.53787873e+00   1.53811805e+00   1.54625596e+00   1.55259986e+00
   1.55354362e+00   1.56188541e+00   1.56222407e+00   1.56526902e+00
   1.57222265e+00   1.57297719e+00   1.58117464e+00   1.62399692e+00
   1.62431970e+00   1.62553927e+00   1.64308917e+00   1.64857293e+00
   1.64914435e+00   1.65688463e+00   1.65979499e+00   1.66389089e+00
   1.70901078e+00   1.70923023e+00   1.71596900e+00   1.86885835e+00
   1.86897268e+00   1.87119472e+00   1.87833059e+00   1.90903961e+00
   1.91686495e+00   1.91688141e+00   1.93214917e+00   1.93370985e+00
   1.93847448e+00   1.95438606e+00   1.96245037e+00   1.96829623e+00
   1.96907928e+00   1.97714108e+00   1.97820657e+00   1.98005943e+00
   1.98627115e+00   2.01664248e+00   2.02069341e+00   2.02449893e+00
   2.04273029e+00   2.20365895e+00   2.22150906e+00   2.22585925e+00
   2.24052032e+00   2.26610697e+00   2.33907279e+00   2.34492220e+00
   2.36687084e+00   2.37168877e+00   2.37672938e+00   2.39933272e+00
   2.41038219e+00   2.41180973e+00   2.46484794e+00   2.47025234e+00
   2.47094806e+00   2.47910179e+00   2.54397661e+00   2.54433001e+00
   2.55478096e+00   2.65784931e+00   2.65869495e+00   2.66696409e+00
   2.66784281e+00   2.67132269e+00   2.67315631e+00   2.67335192e+00
   2.67575386e+00   2.68820868e+00   2.69489030e+00   2.69609800e+00
   2.69821027e+00   2.71033621e+00   2.73574751e+00   2.73577362e+00
   2.73925676e+00   2.77413331e+00   2.77642800e+00   2.80693671e+00
   2.81218188e+00   2.81674081e+00   2.83451174e+00   2.84470721e+00
   2.85877355e+00   2.85913130e+00   2.86397724e+00   2.86520501e+00
   2.86523087e+00   2.86715345e+00   2.87962023e+00   2.88033602e+00
   2.94291696e+00   2.95737530e+00   2.97071611e+00   2.97597144e+00
   2.98635924e+00   2.98677529e+00   3.00249462e+00   3.00698438e+00
   3.00809539e+00   3.00935618e+00   3.03054321e+00   3.04196477e+00
   3.04441070e+00   3.06369325e+00   3.06381192e+00   3.08619026e+00
   3.09461950e+00   3.10128725e+00   3.10677857e+00   3.14312799e+00
   3.14403843e+00   3.14564611e+00   3.16236229e+00   3.16479442e+00
   3.18200627e+00   3.25458364e+00   3.25875622e+00   3.25956337e+00
   3.26194465e+00   3.27176641e+00   3.44913713e+00   3.45832414e+00
   3.46790870e+00   3.49236131e+00   3.49797293e+00   3.50274184e+00
   3.54046490e+00   3.54350009e+00   3.54351867e+00   3.57029745e+00
   3.58547330e+00   3.59070111e+00   3.64778223e+00   3.64843692e+00
   3.66077536e+00   3.67792797e+00   3.67815830e+00   3.67989341e+00
   3.68020642e+00   3.68159719e+00   3.68243479e+00   3.72643937e+00
   3.72717243e+00   3.72945639e+00   3.74151810e+00   3.74578016e+00
   3.74701248e+00   3.74883492e+00   3.75234179e+00   3.75474155e+00
   3.76915584e+00   3.77064180e+00   3.77535521e+00   3.78679497e+00
   3.78715077e+00   3.80062830e+00   3.88288338e+00   3.90415000e+00
   3.90960789e+00   3.91320012e+00   4.08929850e+00   4.10856338e+00
   4.16074685e+00   4.16703278e+00   4.17418998e+00   4.17530791e+00
   4.20458385e+00   4.22178080e+00   4.23797131e+00   4.61589742e+00
   4.62255672e+00   4.79058509e+00   4.79923465e+00   4.80472171e+00
   5.04695753e+00   5.04697074e+00   5.04748844e+00   5.04750970e+00
   5.07162311e+00   5.07174132e+00   5.07185795e+00   5.07185955e+00
   5.07187783e+00   5.07235760e+00   5.07238334e+00   5.07313908e+00
   5.09191481e+00   5.12117677e+00   5.17824243e+00   5.42379565e+00
   5.43485757e+00   5.46119448e+00   5.47068312e+00   5.47109436e+00
   5.47757898e+00   5.48440805e+00   5.49557255e+00   5.49648313e+00
   5.49663879e+00   5.49742330e+00   5.50159867e+00   5.50338327e+00
   5.54677699e+00   5.55965020e+00   5.90032255e+00   5.93511989e+00
   5.93962058e+00   5.94524180e+00   5.94645986e+00   5.95403011e+00
   5.95588433e+00   5.96139485e+00   5.96178692e+00   5.96841798e+00
   5.96988433e+00   5.97626367e+00   6.02507099e+00   6.02887353e+00
   6.03181796e+00   6.03423451e+00   6.03449452e+00   6.04379857e+00
   6.28421192e+00   6.37059572e+00   6.37083357e+00   6.37219898e+00
   6.37298222e+00   6.38694684e+00   6.39158481e+00   6.40532015e+00
   6.40651628e+00   6.40800497e+00   6.40970720e+00   6.41625746e+00
   6.41852638e+00   6.41908356e+00   6.43436713e+00   6.43736692e+00
   6.43814583e+00   6.43930891e+00   6.43943810e+00   6.44002098e+00
   6.44006533e+00   6.44197499e+00   6.44376967e+00   6.44478697e+00
   6.44842932e+00   6.49437860e+00   6.50097971e+00   6.50317066e+00
   6.66990930e+00   6.68366718e+00   6.70215502e+00   6.71353480e+00
   6.71595159e+00   6.73436166e+00   6.73483203e+00   6.89684636e+00
   6.95954748e+00   6.97786972e+00   6.98021383e+00   6.99523685e+00
   7.00183894e+00   7.00811956e+00   7.01054436e+00   7.01173973e+00
   7.02290347e+00   7.03008879e+00   7.04094509e+00   7.07701094e+00
   7.08352155e+00   7.08411127e+00   7.09167553e+00   7.14582916e+00
   7.14808793e+00   7.15003861e+00   7.23999589e+00   8.24809913e+00
   8.25426971e+00   8.25814107e+00   8.26553080e+00   8.27500935e+00
   8.36413202e+00   9.77812104e+00   9.80209109e+00   9.83921131e+00
   1.04976090e+01   1.05240418e+01   1.10987559e+01   1.20129494e+01
   1.20317837e+01   1.20406116e+01   1.20410108e+01   1.22944936e+01
   1.23039420e+01   1.23387685e+01   1.31166406e+01   1.31240735e+01
   1.31571611e+01   1.38344431e+01   1.38446656e+01   1.38447149e+01
   1.38518899e+01   1.38552065e+01   1.38606061e+01   1.38606318e+01
   1.38657402e+01   1.39055372e+01   1.43256797e+01   1.43325439e+01
   1.43357610e+01   1.47669965e+01   1.47693781e+01   1.48158000e+01
   1.48571343e+01   1.48731087e+01   1.48754211e+01   1.52280789e+01
   1.52528596e+01   1.54330276e+01   2.81969420e+01   2.82028760e+01
   2.82236785e+01   3.21379111e+01   7.02036260e+01]
nelec by numeric integration = [ 40.00002684  36.00001505]
    CPU time for vxc     46.01 sec, wall time      7.98 sec
    CPU time for vj and vk    604.60 sec, wall time    151.17 sec
Ecoul = 635.863595612  Exc = -44.0127734221
Extra cycle  E= -254.158112028531  delta_E= 2.73e-08  |g|= 0.000172  |ddm|= 0.00124
    CPU time for scf_cycle  31915.87 sec, wall time   7910.46 sec
    CPU time for SCF  31917.47 sec, wall time   7911.07 sec
SCF not converged.
SCF energy = -254.158112028531 after 50 cycles
Wavefunction successfuly saved to QMCPACK HDF5 Format
Use: "convert4qmc -Pyscf  FeCO6.h5" to generate QMCPACK input files
