 &FCI NORB= 28,NELEC= 14,MS2= 0,
  ISYM=1,
 /
  0.2305701499950483E+01   1   1   1   1
 -0.4727171548624641E-11   2   1   1   1
  0.1816580118019404E+01   2   1   2   1
  0.2306775667029708E+01   2   2   1   1
  0.4727981352779798E-11   2   2   2   1
  0.2307850916000811E+01   2   2   2   2
 -0.1999049331193617E+00   3   1   1   1
  0.2745275375604062E-12   3   1   2   1
 -0.2000940221809327E+00   3   1   2   2
  0.3702271408523505E-01   3   1   3   1
  0.2884552473725495E-12   3   2   1   1
 -0.2110094450303408E+00   3   2   2   1
 -0.8100469215755260E-12   3   2   2   2
  0.4562322741819003E-15   3   2   3   1
  0.3659318800984981E-01   3   2   3   2
  0.8478332870934716E+00   3   3   1   1
 -0.8817816268824608E-15   3   3   2   1
  0.8477417861947480E+00   3   3   2   2
  0.6441486339386970E-02   3   3   3   1
  0.7927686285214008E-14   3   3   3   2
  0.8295373424546660E+00   3   3   3   3
  0.6944418049501314E-12   4   1   1   1
 -0.1761216360054264E+00   4   1   2   1
 -0.2220272712427987E-12   4   1   2   2
 -0.6579892880553828E-13   4   1   3   1
  0.2551551139029907E-01   4   1   3   2
  0.2746525337889161E-13   4   1   3   3
  0.2854229182769265E-01   4   1   4   1
 -0.1843471060130829E+00   4   2   1   1
 -0.2319574044016941E-12   4   2   2   1
 -0.1844875911694609E+00   4   2   2   2
  0.2514682468649238E-01   4   2   3   1
  0.6609469915819233E-13   4   2   3   2
 -0.2245687802571311E-01   4   2   3   3
  0.1232521029681521E-14   4   2   4   1
  0.2884461034548270E-01   4   2   4   2
 -0.4318116553209258E-12   4   3   1   1
  0.1638284379573514E+00   4   3   2   1
  0.4208436069519806E-12   4   3   2   2
  0.1102330032809462E-13   4   3   3   1
 -0.8919667183752266E-02   4   3   3   2
 -0.8496458744899904E-14   4   3   3   3
 -0.3551510544494088E-02   4   3   4   1
 -0.4086574828532363E-14   4   3   4   2
  0.5168835739343299E-01   4   3   4   3
  0.6666315588918622E+00   4   4   1   1
  0.2754765274400051E-13   4   4   2   1
  0.6667113077426573E+00   4   4   2   2
 -0.1331911480999675E-01   4   4   3   1
 -0.1921379721991912E-13   4   4   3   2
  0.5219050022347416E+00   4   4   3   3
  0.4650793639093820E-14   4   4   4   1
 -0.2929375618459982E-02   4   4   4   2
  0.9901801600875615E-14   4   4   4   3
  0.5373535478237167E+00   4   4   4   4
  0.7251323008080363E-01   5   1   1   1
 -0.8033078867895893E-13   5   1   2   1
  0.7254042745874222E-01   5   1   2   2
 -0.2284589595356332E-02   5   1   3   1
  0.2051093669908077E-14   5   1   3   2
  0.3195211594967655E-01   5   1   3   3
  0.4122564919648020E-13   5   1   4   1
 -0.1594953978827313E-01   5   1   4   2
  0.1591175108339726E-14   5   1   4   3
 -0.6337966744972474E-02   5   1   4   4
  0.1776976318275788E-01   5   1   5   1
 -0.5790038257129219E-13   5   2   1   1
  0.5511166064584819E-01   5   2   2   1
  0.2289762211218557E-12   5   2   2   2
  0.2028542264720379E-14   5   2   3   1
 -0.3074547713211189E-02   5   2   3   2
  0.4031889026204910E-13   5   2   3   3
 -0.1535950891786729E-01   5   2   4   1
 -0.4015077116267807E-13   5   2   4   2
 -0.2113505918582411E-02   5   2   4   3
 -0.9959020370528537E-14   5   2   4   4
 -0.2322361053463950E-15   5   2   5   1
  0.1651138122206433E-01   5   2   5   2
  0.1001037116991792E+00   5   3   1   1
  0.6347305764754091E-14   5   3   2   1
  0.1000181723352501E+00   5   3   2   2
  0.9240412878833593E-02   5   3   3   1
  0.1151422707179606E-13   5   3   3   2
  0.1445409075930341E+00   5   3   3   3
  0.9247810850432359E-14   5   3   4   1
 -0.7900533084022991E-02   5   3   4   2
 -0.1698294282981294E-14   5   3   4   3
  0.6307770617936042E-02   5   3   4   4
  0.1644092140409960E-01   5   3   5   1
  0.2069611843014130E-13   5   3   5   2
  0.6603529401805151E-01   5   3   5   3
  0.6537734932685491E-12   5   4   1   1
 -0.2523988842418914E+00   5   4   2   1
 -0.6598459707232371E-12   5   4   2   2
 -0.2111592151132768E-13   5   4   3   1
  0.1594662714116394E-01   5   4   3   2
 -0.3923510821790543E-14   5   4   3   3
 -0.4169421044920093E-02   5   4   4   1
 -0.6140487424088903E-14   5   4   4   2
 -0.8970142452617788E-01   5   4   4   3
 -0.2411655944389857E-13   5   4   4   4
 -0.2246206692868569E-13   5   4   5   1
  0.1670517401617613E-01   5   4   5   2
 -0.5795711133238513E-14   5   4   5   3
  0.2098881701683977E+00   5   4   5   4
  0.6963157446616182E+00   5   5   1   1
 -0.2961175683997841E-13   5   5   2   1
  0.6963477819806568E+00   5   5   2   2
 -0.8364548301676183E-02   5   5   3   1
 -0.9256484467812243E-14   5   5   3   2
  0.5704321366124044E+00   5   5   3   3
  0.4894522287468561E-14   5   5   4   1
 -0.4025714026002644E-02   5   5   4   2
 -0.1189326415129699E-13   5   5   4   3
  0.5416805896539137E+00   5   5   4   4
 -0.1314697998419087E-02   5   5   5   1
  0.1353084311261910E-15   5   5   5   2
  0.3371144873731987E-01   5   5   5   3
  0.2258609965721803E-13   5   5   5   4
  0.5635790154344533E+00   5   5   5   5
  0.9228876704970278E-16   6   1   1   1
 -0.2552767639488719E-15   6   1   2   1
  0.9066960377847552E-16   6   1   2   2
 -0.1320980762933050E-16   6   1   3   1
  0.2931479239666722E-16   6   1   3   2
  0.6243691984911182E-17   6   1   3   3
  0.1360808191169129E-16   6   1   4   1
 -0.1686076939597228E-17   6   1   4   2
 -0.3889248221794172E-16   6   1   4   3
  0.2056468688024369E-16   6   1   4   4
  0.1246689189369869E-17   6   1   5   1
  0.6533073125420834E-17   6   1   5   2
  0.2564643307122421E-17   6   1   5   3
  0.6471534618294270E-16   6   1   5   4
  0.1143324626619189E-16   6   1   5   5
  0.1258801225218750E-01   6   1   6   1
 -0.1967208706766092E-15   6   2   1   1
  0.1196040498998290E-15   6   2   2   1
 -0.1898620611518350E-15   6   2   2   2
  0.2313906067224055E-16   6   2   3   1
 -0.1338313446250136E-16   6   2   3   2
 -0.2998437192111779E-16   6   2   3   3
 -0.3417621499836839E-17   6   2   4   1
  0.1945772583723441E-16   6   2   4   2
  0.2503807525696290E-16   6   2   4   3
 -0.2121076227929458E-16   6   2   4   4
  0.5881342868225750E-17   6   2   5   1
 -0.2858303873902541E-17   6   2   5   2
  0.1199951985235585E-18   6   2   5   3
 -0.4755623600544313E-16   6   2   5   4
 -0.2442883581236711E-16   6   2   5   5
  0.8096821824121747E-15   6   2   6   1
  0.1195209097570643E-01   6   2   6   2
 -0.1442746295970676E-15   6   3   1   1
  0.2186217229550881E-15   6   3   2   1
 -0.1453919665543718E-15   6   3   2   2
  0.3561208336856858E-17   6   3   3   1
 -0.1622950878100506E-16   6   3   3   2
 -0.1371255343041161E-15   6   3   3   3
 -0.3836636063434206E-16   6   3   4   1
  0.3066160690308916E-16   6   3   4   2
  0.3366813959630741E-16   6   3   4   3
 -0.3028152116123978E-16   6   3   4   4
 -0.3424541244911517E-17   6   3   5   1
  0.1394602206498266E-16   6   3   5   2
 -0.1165363163832396E-16   6   3   5   3
 -0.5204167431967967E-16   6   3   5   4
 -0.7340642187920467E-16   6   3   5   5
  0.1739151620788023E-01   6   3   6   1
  0.2260268795045706E-13   6   3   6   2
  0.1019940689047526E+00   6   3   6   3
  0.6005599365892262E-16   6   4   1   1
  0.2704180066357173E-16   6   4   2   1
  0.6664350883609900E-16   6   4   2   2
 -0.1936677338300213E-16   6   4   3   1
  0.8125169787201198E-17   6   4   3   2
  0.1759607934167280E-16   6   4   3   3
  0.4809956256752682E-17   6   4   4   1
 -0.4021161843974653E-17   6   4   4   2
  0.1405096386177340E-16   6   4   4   3
  0.7011285598509992E-17   6   4   4   4
  0.1939622256970451E-16   6   4   5   1
 -0.1223976821094742E-16   6   4   5   2
  0.7800937772622668E-17   6   4   5   3
 -0.2900142087618686E-16   6   4   5   4
 -0.1615639255416987E-16   6   4   5   5
 -0.1358407743928813E-13   6   4   6   1
  0.1058650754949379E-01   6   4   6   2
  0.5481726184086710E-15   6   4   6   3
  0.4115478257246086E-01   6   4   6   4
  0.3753936912091633E-17   6   5   1   1
  0.1510433050584635E-15   6   5   2   1
  0.3707882502351139E-17   6   5   2   2
 -0.2146532004112288E-17   6   5   3   1
 -0.3913259149676671E-17   6   5   3   2
 -0.5793242747918780E-17   6   5   3   3
  0.8821137717064616E-17   6   5   4   1
 -0.1083920786382825E-16   6   5   4   2
  0.3814792900370775E-16   6   5   4   3
  0.1268770061362075E-17   6   5   4   4
 -0.5573261768576086E-17   6   5   5   1
  0.1319068629259868E-17   6   5   5   2
 -0.2025803504394638E-16   6   5   5   3
 -0.8992188907992527E-16   6   5   5   4
  0.2188387675590852E-16   6   5   5   5
 -0.4092237007358671E-02   6   5   6   1
 -0.4767545272411564E-14   6   5   6   2
 -0.1146171381264629E-01   6   5   6   3
  0.8005748841632965E-15   6   5   6   4
  0.2380367065667265E-01   6   5   6   5
  0.6903016833842835E+00   6   6   1   1
 -0.7033761593999710E-16   6   6   2   1
  0.6902946412902385E+00   6   6   2   2
  0.2256086735175460E-03   6   6   3   1
  0.3469446951953614E-16   6   6   3   2
  0.6393847643330040E+00   6   6   3   3
  0.1075441818931822E-13   6   6   4   1
 -0.8768958803164755E-02   6   6   4   2
 -0.3580469254416130E-14   6   6   4   3
  0.4944679900832581E+00   6   6   4   4
  0.1087978696950433E-01   6   6   5   1
  0.1388299197824239E-13   6   6   5   2
  0.6273496049315055E-01   6   6   5   3
 -0.1471045507628332E-14   6   6   5   4
  0.5064996024456921E+00   6   6   5   5
  0.1296157029292509E-16   6   6   6   1
  0.7063326450990520E-17   6   6   6   2
  0.3310984185705449E-17   6   6   6   3
  0.1007609647441767E-15   6   6   6   4
 -0.1289313806352466E-16   6   6   6   5
  0.5806877744848878E+00   6   6   6   6
 -0.7442823288758687E-16   7   1   1   1
  0.5472729623534063E-16   7   1   2   1
 -0.7173921045104806E-16   7   1   2   2
 -0.5251088009863486E-17   7   1   3   1
 -0.2163764329774184E-16   7   1   3   2
 -0.5354081086677419E-16   7   1   3   3
  0.3460045128222406E-17   7   1   4   1
  0.2518955487838698E-16   7   1   4   2
  0.3639780883418958E-17   7   1   4   3
  0.1744736257028829E-16   7   1   4   4
 -0.5572534993811075E-17   7   1   5   1
  0.3403489367180754E-17   7   1   5   2
  0.4463524900784759E-17   7   1   5   3
  0.6624449039030099E-17   7   1   5   4
 -0.9177040765481737E-17   7   1   5   5
 -0.2233798397047148E-17   7   1   6   1
 -0.3253650095979126E-16   7   1   6   2
 -0.8988212967497111E-17   7   1   6   3
 -0.4271190344819235E-16   7   1   6   4
 -0.9029353205220828E-18   7   1   6   5
 -0.1590312095058069E-16   7   1   6   6
  0.1258801225218754E-01   7   1   7   1
  0.1135973091237695E-15   7   2   1   1
 -0.1162736656761201E-16   7   2   2   1
  0.1220944438219390E-15   7   2   2   2
 -0.2634568425695816E-16   7   2   3   1
 -0.2590094126139246E-17   7   2   3   2
  0.4030561407554748E-17   7   2   3   3
  0.2196627080893263E-16   7   2   4   1
  0.4359923505597756E-17   7   2   4   2
  0.1753035435391781E-16   7   2   4   3
  0.4180044356999416E-16   7   2   4   4
  0.4108134317157332E-17   7   2   5   1
 -0.4608093234389389E-17   7   2   5   2
  0.3668034921555895E-17   7   2   5   3
 -0.3066287522210055E-16   7   2   5   4
  0.1886982351646701E-16   7   2   5   5
 -0.3286887141693081E-16   7   2   6   1
  0.3046364092113238E-17   7   2   6   2
 -0.2638171259213259E-16   7   2   6   3
  0.6965788020451872E-17   7   2   6   4
  0.1646163042873382E-16   7   2   6   5
  0.1847308912936822E-16   7   2   6   6
  0.8611275754966119E-15   7   2   7   1
  0.1195209097570649E-01   7   2   7   2
 -0.2284465265726109E-15   7   3   1   1
 -0.2723673614171131E-15   7   3   2   1
 -0.2241082985000106E-15   7   3   2   2
 -0.1792613632233556E-16   7   3   3   1
  0.4423187718077463E-17   7   3   3   2
 -0.2822297693049160E-15   7   3   3   3
  0.1660080506044045E-16   7   3   4   1
  0.3139378113908079E-16   7   3   4   2
 -0.2260498109703896E-16   7   3   4   3
 -0.1752349831755197E-16   7   3   4   4
 -0.1268660278085580E-17   7   3   5   1
  0.7054036541996381E-17   7   3   5   2
  0.6701436558621780E-16   7   3   5   3
  0.1404047804025351E-15   7   3   5   4
 -0.1207530826927331E-15   7   3   5   5
 -0.3127072270415304E-17   7   3   6   1
 -0.2083340682080856E-16   7   3   6   2
  0.2852291675372087E-16   7   3   6   3
 -0.1252941667718872E-15   7   3   6   4
 -0.1668703409577260E-16   7   3   6   5
 -0.1210807581511799E-15   7   3   6   6
  0.1739151620788026E-01   7   3   7   1
  0.2264865812257044E-13   7   3   7   2
  0.1019940689047526E+00   7   3   7   3
  0.2625576423975930E-15   7   4   1   1
  0.4219598496682724E-15   7   4   2   1
  0.2694857582286792E-15   7   4   2   2
 -0.9363365974319666E-17   7   4   3   1
 -0.2086165983113538E-16   7   4   3   2
  0.1972469885893020E-15   7   4   3   3
  0.1133546870969483E-16   7   4   4   1
  0.7074656078144834E-17   7   4   4   2
  0.1519136584053110E-15   7   4   4   3
  0.1791889585348353E-15   7   4   4   4
  0.1630838825713088E-16   7   4   5   1
 -0.1332992110482076E-16   7   4   5   2
  0.7226382100846668E-16   7   4   5   3
 -0.2890110843463745E-15   7   4   5   4
  0.1171523878427453E-15   7   4   5   5
 -0.3640037860781830E-16   7   4   6   1
  0.5357771945537604E-17   7   4   6   2
 -0.1120258201953549E-15   7   4   6   3
  0.8041293835685397E-17   7   4   6   4
  0.9341022379073162E-16   7   4   6   5
  0.1748467610946149E-15   7   4   6   6
 -0.1354352827803718E-13   7   4   7   1
  0.1058650754949384E-01   7   4   7   2
  0.5976122374740100E-15   7   4   7   3
  0.4115478257246091E-01   7   4   7   4
  0.4756041168781720E-16   7   5   1   1
  0.9652949987304797E-16   7   5   2   1
  0.4695116478688371E-16   7   5   2   2
  0.1246510968046722E-16   7   5   3   1
 -0.2177632072300761E-17   7   5   3   2
  0.1524871878413525E-15   7   5   3   3
  0.1174748964085915E-17   7   5   4   1
 -0.1434245927996530E-16   7   5   4   2
  0.5384584715197934E-16   7   5   4   3
 -0.5819563700896215E-16   7   5   4   4
  0.1361520039654301E-16   7   5   5   1
 -0.6617016201388014E-17   7   5   5   2
  0.2782906847847054E-16   7   5   5   3
 -0.8561490726395187E-16   7   5   5   4
  0.1489735277754418E-16   7   5   5   5
  0.4582051011001779E-17   7   5   6   1
  0.1042807917078550E-16   7   5   6   2
  0.1137411188890002E-16   7   5   6   3
  0.8662631441324967E-16   7   5   6   4
  0.4536513162755089E-17   7   5   6   5
  0.7152227660103384E-16   7   5   6   6
 -0.4092237007358681E-02   7   5   7   1
 -0.4791418048996979E-14   7   5   7   2
 -0.1146171381264627E-01   7   5   7   3
  0.7454974138010328E-15   7   5   7   4
  0.2380367065667267E-01   7   5   7   5
  0.1674374612297502E-15   7   6   1   1
 -0.5974190092987319E-15   7   6   2   1
  0.1686199102290695E-15   7   6   2   2
 -0.1465482518002359E-17   7   6   3   1
  0.2773957223171428E-16   7   6   3   2
  0.1773478311563549E-15   7   6   3   3
 -0.7091351605091708E-18   7   6   4   1
  0.1267395095887744E-17   7   6   4   2
 -0.1932786376639708E-15   7   6   4   3
  0.1300034320887375E-15   7   6   4   4
  0.4961166607317283E-17   7   6   5   1
  0.1105134983542194E-16   7   6   5   2
  0.1822602543831035E-16   7   6   5   3
  0.3352654062187331E-15   7   6   5   4
  0.1328451756285483E-15   7   6   5   5
  0.4426901153547932E-17   7   6   6   1
 -0.1394520949008162E-17   7   6   6   2
  0.1889412034085756E-16   7   6   6   3
  0.1429341897541718E-16   7   6   6   4
  0.1216990661695665E-17   7   6   6   5
 -0.1984278389657260E-11   7   6   6   6
  0.1811926513093637E-17   7   6   7   1
  0.8101573789026211E-17   7   6   7   2
  0.2984458978836697E-16   7   6   7   3
  0.1875740604579467E-16   7   6   7   4
 -0.7195945707636663E-17   7   6   7   5
  0.2354229507208484E-01   7   6   7   6
  0.6903016833842841E+00   7   7   1   1
  0.4839607447432170E-15   7   7   2   1
  0.6902946412902392E+00   7   7   2   2
  0.2256086735175147E-03   7   7   3   1
  0.3469446951953614E-17   7   7   3   2
  0.6393847643330041E+00   7   7   3   3
  0.1074314248672437E-13   7   7   4   1
 -0.8768958803164750E-02   7   7   4   2
 -0.3261280134836397E-14   7   7   4   3
  0.4944679900832581E+00   7   7   4   4
  0.1087978696950433E-01   7   7   5   1
  0.1388125725476641E-13   7   7   5   2
  0.6273496049315058E-01   7   7   5   3
 -0.1713906794265085E-14   7   7   5   4
  0.5064996024456921E+00   7   7   5   5
  0.8911529962401202E-17   7   7   6   1
 -0.1704656292692908E-16   7   7   6   2
 -0.5928422897510173E-16   7   7   6   3
  0.2456491471783792E-16   7   7   6   4
  0.2209603288172662E-17   7   7   6   5
  0.5336031842781229E+00   7   7   6   6
  0.3407913233475384E-17   7   7   7   1
 -0.6717175106585793E-17   7   7   7   2
 -0.1198802923603644E-16   7   7   7   3
  0.9384269129624670E-16   7   7   7   4
  0.5651434274017037E-16   7   7   7   5
  0.1984606923244314E-11   7   7   7   6
  0.5806877744848880E+00   7   7   7   7
  0.1216205686780823E-15   8   1   1   1
 -0.4128829783730952E-15   8   1   2   1
  0.1302400191752829E-15   8   1   2   2
 -0.1902424573585844E-16   8   1   3   1
  0.4564153098069018E-16   8   1   3   2
  0.2363663535873678E-16   8   1   3   3
  0.4487592762477521E-16   8   1   4   1
  0.3320388784704896E-17   8   1   4   2
 -0.3703640357164801E-16   8   1   4   3
  0.3978342597354707E-16   8   1   4   4
  0.1096076062083825E-16   8   1   5   1
  0.3522045025874225E-17   8   1   5   2
  0.1457746024970748E-16   8   1   5   3
  0.7029711112129320E-16   8   1   5   4
  0.2212547441997627E-16   8   1   5   5
 -0.1713715364819006E-14   8   1   6   1
  0.6441676337672745E-03   8   1   6   2
 -0.1131331085670734E-14   8   1   6   3
  0.5792101967490138E-03   8   1   6   4
  0.3623268135174995E-15   8   1   6   5
  0.2933727115394927E-16   8   1   6   6
 -0.3086398324414485E-13   8   1   7   1
  0.1161986975912708E-01   8   1   7   2
 -0.2038397662468272E-13   8   1   7   3
  0.1044812979817219E-01   8   1   7   4
  0.6306587196913682E-14   8   1   7   5
  0.1412689015182305E-17   8   1   7   6
  0.7179455427190235E-18   8   1   7   7
  0.1135432274350305E-01   8   1   8   1
 -0.4143190183990004E-15   8   2   1   1
  0.1739718022790362E-15   8   2   2   1
 -0.4120745412222006E-15   8   2   2   2
  0.4112876500241501E-16   8   2   3   1
 -0.1970999732065687E-16   8   2   3   2
 -0.9511769684634644E-16   8   2   3   3
  0.3135527273385360E-18   8   2   4   1
  0.4777540536133126E-16   8   2   4   2
  0.3253916824197759E-16   8   2   4   3
 -0.5206664794856545E-16   8   2   4   4
  0.1643800194303997E-17   8   2   5   1
  0.8338317506835419E-17   8   2   5   2
  0.8125286399131384E-17   8   2   5   3
 -0.3848388013055021E-16   8   2   5   4
 -0.7950054757865336E-16   8   2   5   5
  0.6718633327183317E-03   8   2   6   1
  0.1714747050948762E-14   8   2   6   2
  0.8698113413222560E-03   8   2   6   3
  0.7608117694873906E-15   8   2   6   4
 -0.2473206885261891E-03   8   2   6   5
 -0.6179916687436905E-16   8   2   6   6
  0.1211946085596189E-01   8   2   7   1
  0.3089434090497445E-13   8   2   7   2
  0.1569016195686058E-01   8   2   7   3
  0.1378931691053964E-13   8   2   7   4
 -0.4461314165390283E-02   8   2   7   5
  0.7729717285362324E-17   8   2   7   6
 -0.3623762899571304E-16   8   2   7   7
 -0.5099544918285570E-15   8   2   8   1
  0.1174355242570727E-01   8   2   8   2
  0.2475354860635155E-16   8   3   1   1
 -0.3569784149099415E-16   8   3   2   1
  0.3143479313353412E-16   8   3   2   2
 -0.2521544114180814E-17   8   3   3   1
 -0.1136981240237602E-17   8   3   3   2
  0.5127039061079508E-16   8   3   3   3
 -0.4569101991613080E-18   8   3   4   1
  0.1069621251223487E-16   8   3   4   2
 -0.2454477806271588E-16   8   3   4   3
  0.6161224416374171E-16   8   3   4   4
  0.1482447287581824E-16   8   3   5   1
  0.1358236920568723E-16   8   3   5   2
  0.5131458233581791E-16   8   3   5   3
  0.9128189592695693E-16   8   3   5   4
  0.1572112754727986E-16   8   3   5   5
 -0.7047585171698900E-15   8   3   6   1
  0.5462977886530973E-03   8   3   6   2
  0.9943489174407683E-16   8   3   6   3
  0.1819577183504458E-02   8   3   6   4
  0.1100194154529666E-15   8   3   6   5
  0.6921245232168045E-16   8   3   6   6
 -0.1278030415871600E-13   8   3   7   1
  0.9854436673143157E-02   8   3   7   2
  0.2003605614753212E-15   8   3   7   3
  0.3282258961902397E-01   8   3   7   4
  0.1500102125850944E-14   8   3   7   5
  0.2805023428353979E-16   8   3   7   6
 -0.4377702603366527E-16   8   3   7   7
  0.9458701550267207E-02   8   3   8   1
  0.1231393459422137E-13   8   3   8   2
  0.3067583084204123E-01   8   3   8   3
  0.9307567922343388E-16   8   4   1   1
  0.2911476289137758E-15   8   4   2   1
  0.9597621920631628E-16   8   4   2   2
 -0.1052842746966727E-16   8   4   3   1
 -0.1582959073246074E-16   8   4   3   2
  0.1730848948328361E-16   8   4   3   3
  0.5005481460445538E-17   8   4   4   1
  0.9146376426668289E-17   8   4   4   2
  0.1182050837984765E-15   8   4   4   3
  0.4120108059914319E-16   8   4   4   4
  0.2407288680720600E-16   8   4   5   1
 -0.1520103903088785E-17   8   4   5   2
  0.1230252639059341E-15   8   4   5   3
 -0.1694034750204120E-15   8   4   5   4
 -0.8983525642006642E-16   8   4   5   5
  0.7673112949511085E-03   8   4   6   1
  0.1019146654004585E-14   8   4   6   2
  0.3512405583683158E-02   8   4   6   3
  0.1429520564422138E-15   8   4   6   4
 -0.1844165931637069E-02   8   4   6   5
  0.3106622886537058E-16   8   4   6   6
  0.1384120661247051E-01   8   4   7   1
  0.1834562233030135E-13   8   4   7   2
  0.6335881109850075E-01   8   4   7   3
  0.3744400622895938E-14   8   4   7   4
 -0.3326613573320822E-01   8   4   7   5
  0.3265007754231560E-16   8   4   7   6
  0.1824770626679450E-15   8   4   7   7
 -0.1701774571954973E-13   8   4   8   1
  0.1337997815167716E-01   8   4   8   2
  0.1429412144204889E-14   8   4   8   3
  0.7157141353941113E-01   8   4   8   4
  0.1010785929685573E-15   8   5   1   1
  0.3684491232991299E-15   8   5   2   1
  0.9670624277139804E-16   8   5   2   2
  0.8932577675361330E-17   8   5   3   1
 -0.1630620840891001E-16   8   5   3   2
  0.1126383848513229E-15   8   5   3   3
 -0.1402558752481176E-17   8   5   4   1
 -0.1484980667454500E-16   8   5   4   2
  0.1397200272302378E-15   8   5   4   3
 -0.2702958850784219E-16   8   5   4   4
  0.3006765680370605E-17   8   5   5   1
 -0.1688162121486162E-16   8   5   5   2
  0.1424658136917760E-16   8   5   5   3
 -0.2891633313581385E-15   8   5   5   4
  0.4551067941365972E-16   8   5   5   5
  0.4972151163018523E-15   8   5   6   1
 -0.3466223219222919E-03   8   5   6   2
  0.1786223079169869E-15   8   5   6   3
 -0.1881927691979663E-02   8   5   6   4
 -0.2290377089375628E-15   8   5   6   5
  0.3648571594226308E-16   8   5   6   6
  0.8796891166895637E-14   8   5   7   1
 -0.6252574679649826E-02   8   5   7   2
  0.2896771364446771E-14   8   5   7   3
 -0.3394730428942742E-01   8   5   7   4
 -0.3444727142420945E-14   8   5   7   5
 -0.2269417092091432E-17   8   5   7   6
  0.1200698252657202E-15   8   5   7   7
 -0.6500759612119288E-02   8   5   8   1
 -0.7772482744222708E-14   8   5   8   2
 -0.2176566934115147E-01   8   5   8   3
  0.1436351038108796E-14   8   5   8   4
  0.3619315885638792E-01   8   5   8   5
 -0.3338974812868365E-13   8   6   1   1
  0.1286401198695361E-01   8   6   2   1
  0.3356583288510129E-13   8   6   2   2
  0.6319814463418005E-15   8   6   3   1
 -0.4825559960462907E-03   8   6   3   2
  0.1368275447428452E-15   8   6   3   3
 -0.8383030413696708E-04   8   6   4   1
 -0.1085964001015793E-15   8   6   4   2
  0.4321336050092710E-02   8   6   4   3
  0.7953425612232338E-15   8   6   4   4
  0.3191620145254204E-15   8   6   5   1
 -0.2320359833095254E-03   8   6   5   2
  0.2477944065215620E-15   8   6   5   3
 -0.7356272558303267E-02   8   6   5   4
 -0.8554238443875338E-15   8   6   5   5
  0.9425828565963668E-17   8   6   6   1
  0.1332245991921990E-17   8   6   6   2
  0.7234258625507788E-16   8   6   6   3
 -0.3221566206567039E-20   8   6   6   4
 -0.1203476657212670E-16   8   6   6   5
  0.8687169907040104E-16   8   6   6   6
  0.3543510227649149E-17   8   6   7   1
  0.4940000914793762E-17   8   6   7   2
  0.3632267743940049E-16   8   6   7   3
  0.2350550800865456E-16   8   6   7   4
  0.3193722493252929E-17   8   6   7   5
 -0.8457623978334189E-17   8   6   7   6
 -0.5065257024580716E-18   8   6   7   7
 -0.3233533712329883E-17   8   6   8   1
  0.1154063073001937E-16   8   6   8   2
  0.3261785830659757E-17   8   6   8   3
  0.3631861513980406E-16   8   6   8   4
  0.4362447623700891E-17   8   6   8   5
  0.1391820886507889E-01   8   6   8   6
 -0.6028962336019353E-12   8   7   1   1
  0.2320485166168000E+00   8   7   2   1
  0.6047954686038412E-12   8   7   2   2
  0.1128871301991907E-13   8   7   3   1
 -0.8704625211842806E-02   8   7   3   2
  0.4805205740616050E-15   8   7   3   3
 -0.1512179694969718E-02   8   7   4   1
 -0.1867429821889033E-14   8   7   4   2
  0.7795076848837594E-01   8   7   4   3
  0.1515579627880569E-13   8   7   4   4
  0.5427949756331429E-14   8   7   5   1
 -0.4185599778926044E-02   8   7   5   2
  0.3379241331202820E-14   8   7   5   3
 -0.1326967152016302E+00   8   7   5   4
 -0.1501681158363628E-13   8   7   5   5
 -0.4325019714428281E-16   8   7   6   1
  0.3418367081560959E-16   8   7   6   2
  0.9731404371028804E-16   8   7   6   3
  0.2678269139763495E-16   8   7   6   4
  0.5897559476332414E-16   8   7   6   5
  0.3482457378023440E-15   8   7   6   6
 -0.1741123446707522E-16   8   7   7   1
  0.3755946374324767E-16   8   7   7   2
 -0.1691211096613034E-15   8   7   7   3
  0.2924817648485373E-15   8   7   7   4
  0.1027707013900816E-15   8   7   7   5
 -0.2892651396191326E-15   8   7   7   6
  0.5347806039961069E-15   8   7   7   7
 -0.4599383474759075E-16   8   7   8   1
  0.3479839021262949E-16   8   7   8   2
 -0.6934275716386091E-17   8   7   8   3
  0.1181142325101587E-15   8   7   8   4
  0.1718897280418138E-15   8   7   8   5
  0.6721457803864048E-02   8   7   8   6
  0.1347911513035893E+00   8   7   8   7
  0.6150809140323327E+00   8   8   1   1
  0.8355675092802661E-15   8   8   2   1
  0.6151109961584196E+00   8   8   2   2
 -0.4231079683899774E-02   8   8   3   1
 -0.5728056917675417E-14   8   8   3   2
  0.5306049414124525E+00   8   8   3   3
  0.5891988286155225E-14   8   8   4   1
 -0.4660236760767149E-02   8   8   4   2
 -0.9575673587391975E-15   8   8   4   3
  0.4783793870412835E+00   8   8   4   4
  0.2633368122864663E-02   8   8   5   1
  0.3349751032111214E-14   8   8   5   2
  0.2570090532699937E-01   8   8   5   3
 -0.1477984401532240E-14   8   8   5   4
  0.4807618297425735E+00   8   8   5   5
  0.9458952944326664E-17   8   8   6   1
 -0.1189737576353451E-16   8   8   6   2
 -0.4253475015928823E-16   8   8   6   3
  0.2625655110898252E-16   8   8   6   4
  0.8056555625233784E-17   8   8   6   5
  0.4727249349374911E+00   8   8   6   6
 -0.1291767899904429E-16   8   8   7   1
  0.2904724125179937E-16   8   8   7   2
 -0.9408912153590102E-16   8   8   7   3
  0.1697988095400968E-15   8   8   7   4
  0.7610021124604022E-16   8   8   7   5
  0.1973587625365354E-02   8   8   7   6
  0.5082162450668757E+00   8   8   7   7
  0.2963438447895112E-16   8   8   8   1
 -0.5388937984638269E-16   8   8   8   2
  0.4801317042986081E-16   8   8   8   3
 -0.9720358115067043E-17   8   8   8   4
  0.4214798586853590E-17   8   8   8   5
  0.3989863994746656E-16   8   8   8   6
  0.1082467449009528E-14   8   8   8   7
  0.4775944162496060E+00   8   8   8   8
 -0.6368929093687699E-15   9   1   1   1
  0.6293997185934212E-15   9   1   2   1
 -0.6436841713330856E-15   9   1   2   2
  0.8138170801618716E-16   9   1   3   1
 -0.7242848825625831E-16   9   1   3   2
 -0.1081462751242006E-15   9   1   3   3
 -0.6060463445380347E-16   9   1   4   1
  0.7371565495082401E-16   9   1   4   2
  0.6094063543805784E-16   9   1   4   3
 -0.6544254730664597E-16   9   1   4   4
 -0.3786958948890331E-16   9   1   5   1
  0.1747719253219437E-16   9   1   5   2
 -0.2791116886854132E-16   9   1   5   3
 -0.9640284646568882E-16   9   1   5   4
 -0.7191075282866782E-16   9   1   5   5
  0.3080402686400641E-13   9   1   6   1
 -0.1161986975912700E-01   9   1   6   2
  0.2029160259958696E-13   9   1   6   3
 -0.1044812979817214E-01   9   1   6   4
 -0.6290974685629891E-14   9   1   6   5
 -0.8667290962592373E-16   9   1   6   6
 -0.1690301680091003E-14   9   1   7   1
  0.6441676337672676E-03   9   1   7   2
 -0.1109647042221024E-14   9   1   7   3
  0.5792101967490145E-03   9   1   7   4
  0.3392739648250265E-15   9   1   7   5
  0.4413815341055769E-17   9   1   7   6
 -0.7804356382773713E-16   9   1   7   7
 -0.2181460736000538E-17   9   1   8   1
 -0.1860458880054850E-16   9   1   8   2
  0.1674928131155594E-18   9   1   8   3
 -0.9135035708095687E-17   9   1   8   4
  0.1926121353617385E-19   9   1   8   5
  0.8225598300014304E-17   9   1   8   6
  0.8840082163816976E-16   9   1   8   7
 -0.6326334588214726E-16   9   1   8   8
  0.1135432274350293E-01   9   1   9   1
  0.6572581054357208E-15   9   2   1   1
 -0.6894538300003734E-15   9   2   2   1
  0.6593827905174717E-15   9   2   2   2
 -0.6762610176255627E-16   9   2   3   1
  0.8418144429623561E-16   9   2   3   2
  0.1660905171792725E-15   9   2   3   3
  0.7714758702693977E-16   9   2   4   1
 -0.6694840018621555E-16   9   2   4   2
 -0.5889746834460588E-16   9   2   4   3
  0.9385177965847184E-16   9   2   4   4
  0.2269949294354406E-16   9   2   5   1
 -0.2989519390788605E-16   9   2   5   2
  0.3368088143482114E-16   9   2   5   3
  0.9401215112537095E-16   9   2   5   4
  0.1136904518476792E-15   9   2   5   5
 -0.1211946085596181E-01   9   2   6   1
 -0.3094920153490222E-13   9   2   6   2
 -0.1569016195686046E-01   9   2   6   3
 -0.1384265965742593E-13   9   2   6   4
  0.4461314165390245E-02   9   2   6   5
  0.1011026146479570E-15   9   2   6   6
  0.6718633327183244E-03   9   2   7   1
  0.1728421550849235E-14   9   2   7   2
  0.8698113413222291E-03   9   2   7   3
  0.7751367906913553E-15   9   2   7   4
 -0.2473206885261800E-03   9   2   7   5
 -0.8483897533607352E-17   9   2   7   6