
     Program PWSCF v.6.3MaX starts on  4Nov2019 at 15:10:53 

     This program is part of the open-source Quantum ESPRESSO suite
     for quantum simulation of materials; please cite
         "P. Giannozzi et al., J. Phys.:Condens. Matter 21 395502 (2009);
         "P. Giannozzi et al., J. Phys.:Condens. Matter 29 465901 (2017);
          URL http://www.quantum-espresso.org", 
     in publications or presentations arising from this work. More details at
     http://www.quantum-espresso.org/quote

     Parallel version (MPI), running on    16 processors

     MPI processes distributed on     1 nodes
     R & G space division:  proc/nbgrp/npool/nimage =      16
     Reading input from scf.in

     Current dimensions of program PWSCF are:
     Max number of different atomic species (ntypx) = 10
     Max number of k-points (npk) =  40000
     Max angular momentum in pseudopotentials (lmaxx) =  3

     IMPORTANT: XC functional enforced from input :
     Exchange-correlation      = LDA ( 1  1  0  0 0 0)
     Any further DFT definition will be discarded
     Please, verify this is what you really want

               file C.BFD.upf: wavefunction(s)  0s 0p renormalized

     Subspace diagonalization in iterative solution of the eigenvalue problem:
     a serial algorithm will be used


     Parallelization info
     --------------------
     sticks:   dense  smooth     PW     G-vecs:    dense   smooth      PW
     Min         118     118     32                 3372     3372     488
     Max         119     119     34                 3375     3375     490
     Sum        1891    1891    517                53977    53977    7823



     bravais-lattice index     =            0
     lattice parameter (alat)  =       9.5407  a.u.
     unit-cell volume          =     614.0889 (a.u.)^3
     number of atoms/cell      =           15
     number of atomic types    =            1
     number of electrons       =        60.00
     number of Kohn-Sham states=           30
     kinetic-energy cutoff     =      75.0000  Ry
     charge density cutoff     =     300.0000  Ry
     convergence threshold     =      1.0E-07
     mixing beta               =       0.7000
     number of iterations used =            8  plain     mixing
     Exchange-correlation      = LDA ( 1  1  0  0 0 0)

     celldm(1)=   9.540740  celldm(2)=   0.000000  celldm(3)=   0.000000
     celldm(4)=   0.000000  celldm(5)=   0.000000  celldm(6)=   0.000000

     crystal axes: (cart. coord. in units of alat)
               a(1) = (   0.707107   0.707107   0.000000 )  
               a(2) = (  -0.000000   0.707107   0.707107 )  
               a(3) = (   0.707107  -0.000000   0.707107 )  

     reciprocal axes: (cart. coord. in units 2 pi/alat)
               b(1) = (  0.707107  0.707107 -0.707107 )  
               b(2) = ( -0.707107  0.707107  0.707107 )  
               b(3) = (  0.707107 -0.707107  0.707107 )  


     PseudoPot. # 1 for C  read from file:
     ./C.BFD.upf
     MD5 check sum: 44213404c8404db625590c8337a04dfd
     Pseudo is Norm-conserving, Zval =  4.0
     Generated by new atomic code, or converted to UPF format
     Using radial grid of 2000 points,  1 beta functions with: 
                l(1) =   0

     atomic species   valence    mass     pseudopotential
        C              4.00    12.01100     C ( 1.00)

     24 Sym. Ops. (no inversion) found (18 have fractional translation)


                                    s                        frac. trans.

      isym =  1     identity                                     

 cryst.   s( 1) = (     1          0          0      )
                  (     0          1          0      )
                  (     0          0          1      )

 cart.    s( 1) = (  1.0000000  0.0000000  0.0000000 )
                  (  0.0000000  1.0000000  0.0000000 )
                  (  0.0000000  0.0000000  1.0000000 )


      isym =  2     180 deg rotation - cart. axis [0,0,1]        

 cryst.   s( 2) = (    -1          0          0      )    f =(  0.5000000 )
                  (    -1          0          1      )       (  0.0000000 )
                  (    -1          1          0      )       (  0.0000000 )

 cart.    s( 2) = ( -1.0000000  0.0000000  0.0000000 )    f =(  0.3535534 )
                  (  0.0000000 -1.0000000  0.0000000 )       (  0.3535534 )
                  (  0.0000000  0.0000000  1.0000000 )       (  0.0000000 )


      isym =  3     180 deg rotation - cart. axis [0,1,0]        

 cryst.   s( 3) = (     0          1         -1      )    f =(  0.0000000 )
                  (     1          0         -1      )       (  0.0000000 )
                  (     0          0         -1      )       (  0.5000000 )

 cart.    s( 3) = ( -1.0000000  0.0000000  0.0000000 )    f =(  0.3535534 )
                  (  0.0000000  1.0000000  0.0000000 )       (  0.0000000 )
                  (  0.0000000  0.0000000 -1.0000000 )       (  0.3535534 )


      isym =  4     180 deg rotation - cart. axis [1,0,0]        

 cryst.   s( 4) = (     0         -1          1      )    f =(  0.0000000 )
                  (     0         -1          0      )       (  0.5000000 )
                  (     1         -1          0      )       (  0.0000000 )

 cart.    s( 4) = (  1.0000000  0.0000000  0.0000000 )    f =(  0.0000000 )
                  (  0.0000000 -1.0000000  0.0000000 )       (  0.3535534 )
                  (  0.0000000  0.0000000 -1.0000000 )       (  0.3535534 )


      isym =  5     120 deg rotation - cart. axis [-1,-1,-1]     

 cryst.   s( 5) = (     0          0          1      )
                  (     1          0          0      )
                  (     0          1          0      )

 cart.    s( 5) = (  0.0000000  1.0000000  0.0000000 )
                  (  0.0000000  0.0000000  1.0000000 )
                  (  1.0000000  0.0000000  0.0000000 )


      isym =  6     120 deg rotation - cart. axis [-1,1,1]       

 cryst.   s( 6) = (     0          0         -1      )    f =(  0.0000000 )
                  (     0          1         -1      )       (  0.0000000 )
                  (     1          0         -1      )       (  0.5000000 )

 cart.    s( 6) = (  0.0000000 -1.0000000  0.0000000 )    f =(  0.3535534 )
                  (  0.0000000  0.0000000  1.0000000 )       (  0.0000000 )
                  ( -1.0000000  0.0000000  0.0000000 )       (  0.3535534 )


      isym =  7     120 deg rotation - cart. axis [1,1,-1]       

 cryst.   s( 7) = (     1         -1          0      )    f =(  0.0000000 )
                  (     0         -1          1      )       (  0.5000000 )
                  (     0         -1          0      )       (  0.0000000 )

 cart.    s( 7) = (  0.0000000  1.0000000  0.0000000 )    f =(  0.0000000 )
                  (  0.0000000  0.0000000 -1.0000000 )       (  0.3535534 )
                  ( -1.0000000  0.0000000  0.0000000 )       (  0.3535534 )


      isym =  8     120 deg rotation - cart. axis [1,-1,1]       

 cryst.   s( 8) = (    -1          1          0      )    f =(  0.5000000 )
                  (    -1          0          0      )       (  0.0000000 )
                  (    -1          0          1      )       (  0.0000000 )

 cart.    s( 8) = (  0.0000000 -1.0000000  0.0000000 )    f =(  0.3535534 )
                  (  0.0000000  0.0000000 -1.0000000 )       (  0.3535534 )
                  (  1.0000000  0.0000000  0.0000000 )       (  0.0000000 )


      isym =  9     120 deg rotation - cart. axis [1,1,1]        

 cryst.   s( 9) = (     0          1          0      )
                  (     0          0          1      )
                  (     1          0          0      )

 cart.    s( 9) = (  0.0000000  0.0000000  1.0000000 )
                  (  1.0000000  0.0000000  0.0000000 )
                  (  0.0000000  1.0000000  0.0000000 )


      isym = 10     120 deg rotation - cart. axis [-1,1,-1]      

 cryst.   s(10) = (     0         -1          0      )    f =(  0.0000000 )
                  (     1         -1          0      )       (  0.5000000 )
                  (     0         -1          1      )       (  0.0000000 )

 cart.    s(10) = (  0.0000000  0.0000000  1.0000000 )    f =(  0.0000000 )
                  ( -1.0000000  0.0000000  0.0000000 )       (  0.3535534 )
                  (  0.0000000 -1.0000000  0.0000000 )       (  0.3535534 )


      isym = 11     120 deg rotation - cart. axis [1,-1,-1]      

 cryst.   s(11) = (    -1          0          1      )    f =(  0.5000000 )
                  (    -1          1          0      )       (  0.0000000 )
                  (    -1          0          0      )       (  0.0000000 )

 cart.    s(11) = (  0.0000000  0.0000000 -1.0000000 )    f =(  0.3535534 )
                  ( -1.0000000  0.0000000  0.0000000 )       (  0.3535534 )
                  (  0.0000000  1.0000000  0.0000000 )       (  0.0000000 )


      isym = 12     120 deg rotation - cart. axis [-1,-1,1]      

 cryst.   s(12) = (     1          0         -1      )    f =(  0.0000000 )
                  (     0          0         -1      )       (  0.0000000 )
                  (     0          1         -1      )       (  0.5000000 )

 cart.    s(12) = (  0.0000000  0.0000000 -1.0000000 )    f =(  0.3535534 )
                  (  1.0000000  0.0000000  0.0000000 )       (  0.0000000 )
                  (  0.0000000 -1.0000000  0.0000000 )       (  0.3535534 )


      isym = 13     inv. 180 deg rotation - cart. axis [1,1,0]   

 cryst.   s(13) = (    -1          0          0      )    f =(  0.5000000 )
                  (    -1          1          0      )       (  0.0000000 )
                  (    -1          0          1      )       (  0.0000000 )

 cart.    s(13) = (  0.0000000 -1.0000000  0.0000000 )    f =(  0.3535534 )
                  ( -1.0000000  0.0000000  0.0000000 )       (  0.3535534 )
                  (  0.0000000  0.0000000  1.0000000 )       (  0.0000000 )


      isym = 14     inv. 180 deg rotation - cart. axis [1,-1,0]  

 cryst.   s(14) = (     1          0          0      )
                  (     0          0          1      )
                  (     0          1          0      )

 cart.    s(14) = (  0.0000000  1.0000000  0.0000000 )
                  (  1.0000000  0.0000000  0.0000000 )
                  (  0.0000000  0.0000000  1.0000000 )


      isym = 15     inv.  90 deg rotation - cart. axis [0,0,-1]  

 cryst.   s(15) = (     0          1         -1      )    f =(  0.0000000 )
                  (     0          0         -1      )       (  0.0000000 )
                  (     1          0         -1      )       (  0.5000000 )

 cart.    s(15) = (  0.0000000 -1.0000000  0.0000000 )    f =(  0.3535534 )
                  (  1.0000000  0.0000000  0.0000000 )       (  0.0000000 )
                  (  0.0000000  0.0000000 -1.0000000 )       (  0.3535534 )


      isym = 16     inv.  90 deg rotation - cart. axis [0,0,1]   

 cryst.   s(16) = (     0         -1          1      )    f =(  0.0000000 )
                  (     1         -1          0      )       (  0.5000000 )
                  (     0         -1          0      )       (  0.0000000 )

 cart.    s(16) = (  0.0000000  1.0000000  0.0000000 )    f =(  0.0000000 )
                  ( -1.0000000  0.0000000  0.0000000 )       (  0.3535534 )
                  (  0.0000000  0.0000000 -1.0000000 )       (  0.3535534 )


      isym = 17     inv. 180 deg rotation - cart. axis [1,0,1]   

 cryst.   s(17) = (     1          0         -1      )    f =(  0.0000000 )
                  (     0          1         -1      )       (  0.0000000 )
                  (     0          0         -1      )       (  0.5000000 )

 cart.    s(17) = (  0.0000000  0.0000000 -1.0000000 )    f =(  0.3535534 )
                  (  0.0000000  1.0000000  0.0000000 )       (  0.0000000 )
                  ( -1.0000000  0.0000000  0.0000000 )       (  0.3535534 )


      isym = 18     inv. 180 deg rotation - cart. axis [-1,0,1]  

 cryst.   s(18) = (     0          1          0      )
                  (     1          0          0      )
                  (     0          0          1      )

 cart.    s(18) = (  0.0000000  0.0000000  1.0000000 )
                  (  0.0000000  1.0000000  0.0000000 )
                  (  1.0000000  0.0000000  0.0000000 )


      isym = 19     inv.  90 deg rotation - cart. axis [0,1,0]   

 cryst.   s(19) = (    -1          0          1      )    f =(  0.5000000 )
                  (    -1          0          0      )       (  0.0000000 )
                  (    -1          1          0      )       (  0.0000000 )

 cart.    s(19) = (  0.0000000  0.0000000 -1.0000000 )    f =(  0.3535534 )
                  (  0.0000000 -1.0000000  0.0000000 )       (  0.3535534 )
                  (  1.0000000  0.0000000  0.0000000 )       (  0.0000000 )


      isym = 20     inv.  90 deg rotation - cart. axis [0,-1,0]  

 cryst.   s(20) = (     0         -1          0      )    f =(  0.0000000 )
                  (     0         -1          1      )       (  0.5000000 )
                  (     1         -1          0      )       (  0.0000000 )

 cart.    s(20) = (  0.0000000  0.0000000  1.0000000 )    f =(  0.0000000 )
                  (  0.0000000 -1.0000000  0.0000000 )       (  0.3535534 )
                  ( -1.0000000  0.0000000  0.0000000 )       (  0.3535534 )


      isym = 21     inv. 180 deg rotation - cart. axis [0,1,1]   

 cryst.   s(21) = (     1         -1          0      )    f =(  0.0000000 )
                  (     0         -1          0      )       (  0.5000000 )
                  (     0         -1          1      )       (  0.0000000 )

 cart.    s(21) = (  1.0000000  0.0000000  0.0000000 )    f =(  0.0000000 )
                  (  0.0000000  0.0000000 -1.0000000 )       (  0.3535534 )
                  (  0.0000000 -1.0000000  0.0000000 )       (  0.3535534 )


      isym = 22     inv. 180 deg rotation - cart. axis [0,1,-1]  

 cryst.   s(22) = (     0          0          1      )
                  (     0          1          0      )
                  (     1          0          0      )

 cart.    s(22) = (  1.0000000  0.0000000  0.0000000 )
                  (  0.0000000  0.0000000  1.0000000 )
                  (  0.0000000  1.0000000  0.0000000 )


      isym = 23     inv.  90 deg rotation - cart. axis [-1,0,0]  

 cryst.   s(23) = (    -1          1          0      )    f =(  0.5000000 )
                  (    -1          0          1      )       (  0.0000000 )
                  (    -1          0          0      )       (  0.0000000 )

 cart.    s(23) = ( -1.0000000  0.0000000  0.0000000 )    f =(  0.3535534 )
                  (  0.0000000  0.0000000 -1.0000000 )       (  0.3535534 )
                  (  0.0000000  1.0000000  0.0000000 )       (  0.0000000 )


      isym = 24     inv.  90 deg rotation - cart. axis [1,0,0]   

 cryst.   s(24) = (     0          0         -1      )    f =(  0.0000000 )
                  (     1          0         -1      )       (  0.0000000 )
                  (     0          1         -1      )       (  0.5000000 )

 cart.    s(24) = ( -1.0000000  0.0000000  0.0000000 )    f =(  0.3535534 )
                  (  0.0000000  0.0000000  1.0000000 )       (  0.0000000 )
                  (  0.0000000 -1.0000000  0.0000000 )       (  0.3535534 )


   Cartesian axes

     site n.     atom                  positions (alat units)
         1           C   tau(   1) = (  -0.0094266  -0.0094266  -0.0094266  )
         2           C   tau(   2) = (   0.3629800   0.3629800  -0.0094266  )
         3           C   tau(   3) = (   0.5303301   0.5303301   0.1782643  )
         4           C   tau(   4) = (  -0.0094266   0.3629800   0.3629800  )
         5           C   tau(   5) = (   0.1782643   0.5303301   0.5303301  )
         6           C   tau(   6) = (   0.3532378   0.7074224   0.3532378  )
         7           C   tau(   7) = (   0.5303301   0.8823959   0.5303301  )
         8           C   tau(   8) = (   0.3629800  -0.0094266   0.3629800  )
         9           C   tau(   9) = (   0.5303301   0.1782643   0.5303301  )
        10           C   tau(  10) = (   0.7074224   0.3532378   0.3532378  )
        11           C   tau(  11) = (   0.8823959   0.5303301   0.5303301  )
        12           C   tau(  12) = (   0.3532378   0.3532378   0.7074224  )
        13           C   tau(  13) = (   0.5303301   0.5303301   0.8823959  )
        14           C   tau(  14) = (   0.7074224   0.7074224   0.7074224  )
        15           C   tau(  15) = (   0.8838835   0.8838835   0.8838835  )

   Crystallographic axes

     site n.     atom                  positions (cryst. coord.)
         1           C   tau(   1) = ( -0.0066656 -0.0066656 -0.0066656  )
         2           C   tau(   2) = (  0.5199969 -0.0066656 -0.0066656  )
         3           C   tau(   3) = (  0.6239481  0.1260519  0.1260519  )
         4           C   tau(   4) = ( -0.0066656  0.5199969 -0.0066656  )
         5           C   tau(   5) = (  0.1260519  0.6239481  0.1260519  )
         6           C   tau(   6) = (  0.5002232  0.5002232 -0.0006695  )
         7           C   tau(   7) = (  0.6239481  0.6239481  0.1260519  )
         8           C   tau(   8) = ( -0.0066656 -0.0066656  0.5199969  )
         9           C   tau(   9) = (  0.1260519  0.1260519  0.6239481  )
        10           C   tau(  10) = (  0.5002232 -0.0006695  0.5002232  )
        11           C   tau(  11) = (  0.6239481  0.1260519  0.6239481  )
        12           C   tau(  12) = ( -0.0006695  0.5002232  0.5002232  )
        13           C   tau(  13) = (  0.1260519  0.6239481  0.6239481  )
        14           C   tau(  14) = (  0.5002232  0.5002232  0.5002232  )
        15           C   tau(  15) = (  0.6250000  0.6250000  0.6250000  )

     number of k points=     3
                       cart. coord. in units 2pi/alat
        k(    1) = (   0.0000000   0.0000000   0.0000000), wk =   0.2500000
        k(    2) = (  -0.3535534   0.3535534  -0.3535534), wk =   1.0000000
        k(    3) = (   0.0000000   0.0000000  -0.7071068), wk =   0.7500000

                       cryst. coord.
        k(    1) = (   0.0000000   0.0000000   0.0000000), wk =   0.2500000
        k(    2) = (   0.0000000   0.0000000  -0.5000000), wk =   1.0000000
        k(    3) = (   0.0000000  -0.5000000  -0.5000000), wk =   0.7500000

     Dense  grid:    53977 G-vectors     FFT dimensions: (  54,  54,  54)

     Dynamical RAM for                 wfc:       0.19 MB

     Dynamical RAM for     wfc (w. buffer):       0.77 MB

     Dynamical RAM for           str. fact:       0.05 MB

     Dynamical RAM for           local pot:       0.00 MB

     Dynamical RAM for          nlocal pot:       0.10 MB

     Dynamical RAM for                qrad:       0.02 MB

     Dynamical RAM for          rho,v,vnew:       0.42 MB

     Dynamical RAM for               rhoin:       0.14 MB

     Dynamical RAM for            rho*nmix:       0.82 MB

     Dynamical RAM for           G-vectors:       0.22 MB

     Dynamical RAM for          h,s,v(r/c):       0.66 MB

     Dynamical RAM for          <psi|beta>:       0.01 MB

     Dynamical RAM for                 psi:       0.77 MB

     Dynamical RAM for                hpsi:       0.77 MB

     Dynamical RAM for      wfcinit/wfcrot:       0.85 MB

     Estimated static dynamical RAM per process >       3.09 MB

     Estimated max dynamical RAM per process >       5.30 MB

     Estimated total dynamical RAM >      84.78 MB

     Initial potential from superposition of free atoms

     starting charge    4.77463, renormalised to   60.00000
     Starting wfcs are   60 randomized atomic wfcs

     total cpu time spent up to now is        0.9 secs

     Self-consistent Calculation

     iteration #  1     ecut=    75.00 Ry     beta= 0.70
     Davidson diagonalization with overlap
     ethr =  1.00E-02,  avg # of iterations =  2.0

     total cpu time spent up to now is        1.5 secs

     total energy              =    -170.00165599 Ry
     Harris-Foulkes estimate   =    -170.47252703 Ry
     estimated scf accuracy    <       0.88226783 Ry

     iteration #  2     ecut=    75.00 Ry     beta= 0.70
     Davidson diagonalization with overlap
     ethr =  1.47E-03,  avg # of iterations =  2.0

     total cpu time spent up to now is        2.0 secs

     total energy              =    -170.10149211 Ry
     Harris-Foulkes estimate   =    -170.11810052 Ry
     estimated scf accuracy    <       0.03097579 Ry

     iteration #  3     ecut=    75.00 Ry     beta= 0.70
     Davidson diagonalization with overlap
     ethr =  5.16E-05,  avg # of iterations =  3.0

     total cpu time spent up to now is        2.5 secs

     total energy              =    -170.10929962 Ry
     Harris-Foulkes estimate   =    -170.11181320 Ry
     estimated scf accuracy    <       0.00456679 Ry

     iteration #  4     ecut=    75.00 Ry     beta= 0.70
     Davidson diagonalization with overlap
     ethr =  7.61E-06,  avg # of iterations =  3.0

     total cpu time spent up to now is        3.1 secs

     total energy              =    -170.11040360 Ry
     Harris-Foulkes estimate   =    -170.11051238 Ry
     estimated scf accuracy    <       0.00022819 Ry

     iteration #  5     ecut=    75.00 Ry     beta= 0.70
     Davidson diagonalization with overlap
     ethr =  3.80E-07,  avg # of iterations =  3.3

     total cpu time spent up to now is        3.7 secs

     total energy              =    -170.11046415 Ry
     Harris-Foulkes estimate   =    -170.11050810 Ry
     estimated scf accuracy    <       0.00008121 Ry

     iteration #  6     ecut=    75.00 Ry     beta= 0.70
     Davidson diagonalization with overlap
     ethr =  1.35E-07,  avg # of iterations =  2.7

     total cpu time spent up to now is        4.3 secs

     total energy              =    -170.11048301 Ry
     Harris-Foulkes estimate   =    -170.11048365 Ry
     estimated scf accuracy    <       0.00000135 Ry

     iteration #  7     ecut=    75.00 Ry     beta= 0.70
     Davidson diagonalization with overlap
     ethr =  2.24E-09,  avg # of iterations =  4.0

     total cpu time spent up to now is        5.1 secs

     total energy              =    -170.11048376 Ry
     Harris-Foulkes estimate   =    -170.11048389 Ry
     estimated scf accuracy    <       0.00000026 Ry

     iteration #  8     ecut=    75.00 Ry     beta= 0.70
     Davidson diagonalization with overlap
     ethr =  4.32E-10,  avg # of iterations =  2.7

     total cpu time spent up to now is        5.7 secs

     End of self-consistent calculation

          k = 0.0000 0.0000 0.0000 (  6735 PWs)   bands (ev):

    -8.9610  -3.5012  -3.5012  -3.5012  -2.9482  -1.3522  -1.2139  -1.2139
    -1.2139  -0.6772  -0.6772   0.3530   0.3530   0.3530   5.8008   5.8008
     5.8008   6.2549   6.5574   6.5574   6.5574   8.8742   8.8742   9.3697
     9.3697   9.3697  10.8961  10.8961  10.8961  15.1554

     occupation numbers 
     1.0000   1.0000   1.0000   1.0000   1.0000   1.0000   1.0000   1.0000
     1.0000   1.0000   1.0000   1.0000   1.0000   1.0000   1.0000   1.0000
     1.0000   1.0000   1.0000   1.0000   1.0000   1.0000   1.0000   1.0000
     1.0000   1.0000   1.0000   1.0000   1.0000   1.0000

          k =-0.3536 0.3536-0.3536 (  6754 PWs)   bands (ev):

    -7.6097  -6.9988  -3.4803  -3.3660  -3.3660  -2.9616  -2.9616  -0.8450
     1.1692   1.2813   1.2813   2.2786   2.2786   3.6661   5.2526   5.2527
     5.2527   5.3196   5.3683   5.3683   7.0975   7.1008   7.1008   7.3856
     8.5438   8.5438   9.1583  10.2469  10.2469  11.3456

     occupation numbers 
     1.0000   1.0000   1.0000   1.0000   1.0000   1.0000   1.0000   1.0000
     1.0000   1.0000   1.0000   1.0000   1.0000   1.0000   1.0000   1.0000
     1.0000   1.0000   1.0000   1.0000   1.0000   1.0000   1.0000   1.0000
     1.0000   1.0000   1.0000   1.0000   1.0000   1.0000

          k = 0.0000 0.0000-0.7071 (  6742 PWs)   bands (ev):

    -7.0584  -6.5803  -5.0931  -4.6529  -4.6529  -2.9168   0.0303   0.4652
     0.4652   2.0312   3.1683   3.6109   3.6109   3.7359   3.7904   3.9328
     3.9754   3.9754   5.2909   5.2909   6.0812   6.4297   7.8239   7.8239
     8.3863   8.3863   8.6371   9.2588  10.7128  10.9459

     occupation numbers 
     1.0000   1.0000   1.0000   1.0000   1.0000   1.0000   1.0000   1.0000
     1.0000   1.0000   1.0000   1.0000   1.0000   1.0000   1.0000   1.0000
     1.0000   1.0000   1.0000   1.0000   1.0000   1.0000   1.0000   1.0000
     1.0000   1.0000   1.0000   1.0000   1.0000   1.0000

     highest occupied level (ev):    15.1554

!    total energy              =    -170.11048381 Ry
     Harris-Foulkes estimate   =    -170.11048381 Ry
     estimated scf accuracy    <       0.00000001 Ry

     The total energy is the sum of the following terms:

     one-electron contribution =      45.95052938 Ry
     hartree contribution      =      18.57935145 Ry
     xc contribution           =     -52.38488871 Ry
     ewald contribution        =    -182.25547593 Ry

     convergence has been achieved in   8 iterations

     Forces acting on atoms (cartesian axes, Ry/au):

     atom    1 type  1   force =    -0.01852018   -0.01852018   -0.01852018
     atom    2 type  1   force =     0.01852018    0.01852018   -0.01852018
     atom    3 type  1   force =     0.00000000    0.00000000   -0.00189264
     atom    4 type  1   force =    -0.01852018    0.01852018    0.01852018
     atom    5 type  1   force =    -0.00189264   -0.00000000    0.00000000
     atom    6 type  1   force =     0.00046488   -0.00046488    0.00046488
     atom    7 type  1   force =    -0.00000000    0.00189264    0.00000000
     atom    8 type  1   force =     0.01852018   -0.01852018    0.01852018
     atom    9 type  1   force =     0.00000000   -0.00189264   -0.00000000
     atom   10 type  1   force =    -0.00046488    0.00046488    0.00046488
     atom   11 type  1   force =     0.00189264    0.00000000    0.00000000
     atom   12 type  1   force =     0.00046488    0.00046488   -0.00046488
     atom   13 type  1   force =     0.00000000   -0.00000000    0.00189264
     atom   14 type  1   force =    -0.00046488   -0.00046488   -0.00046488
     atom   15 type  1   force =    -0.00000000    0.00000000    0.00000000
     The non-local contrib.  to forces
     atom    1 type  1   force =    -0.18332746   -0.18332746   -0.18332746
     atom    2 type  1   force =     0.18332746    0.18332746   -0.18332746
     atom    3 type  1   force =     0.00000000    0.00000000    0.00848525
     atom    4 type  1   force =    -0.18332746    0.18332746    0.18332746
     atom    5 type  1   force =     0.00848525    0.00000000    0.00000000
     atom    6 type  1   force =    -0.01889756    0.01889756   -0.01889756
     atom    7 type  1   force =    -0.00000000   -0.00848525    0.00000000
     atom    8 type  1   force =     0.18332746   -0.18332746    0.18332746
     atom    9 type  1   force =     0.00000000    0.00848525   -0.00000000
     atom   10 type  1   force =     0.01889756   -0.01889756   -0.01889756
     atom   11 type  1   force =    -0.00848525   -0.00000000    0.00000000
     atom   12 type  1   force =    -0.01889756   -0.01889756    0.01889756
     atom   13 type  1   force =    -0.00000000    0.00000000   -0.00848525
     atom   14 type  1   force =     0.01889756    0.01889756    0.01889756
     atom   15 type  1   force =     0.00000000   -0.00000000    0.00000000
     The ionic contribution  to forces
     atom    1 type  1   force =     2.01255140    2.01255139    2.01255139
     atom    2 type  1   force =    -2.01255139   -2.01255139    2.01255136
     atom    3 type  1   force =     0.00000001   -0.00000002    0.44878579
     atom    4 type  1   force =     2.01255136   -2.01255139   -2.01255138
     atom    5 type  1   force =     0.44878580    0.00000001   -0.00000001
     atom    6 type  1   force =     0.16188658   -0.16188659    0.16188661
     atom    7 type  1   force =    -0.00000002   -0.44878576   -0.00000001
     atom    8 type  1   force =    -2.01255139    2.01255136   -2.01255139
     atom    9 type  1   force =    -0.00000000    0.44878579   -0.00000001
     atom   10 type  1   force =    -0.16188658    0.16188658    0.16188658
     atom   11 type  1   force =    -0.44878575   -0.00000001   -0.00000001
     atom   12 type  1   force =     0.16188658    0.16188659   -0.16188659
     atom   13 type  1   force =    -0.00000001   -0.00000001   -0.44878575
     atom   14 type  1   force =    -0.16188660   -0.16188659   -0.16188659
     atom   15 type  1   force =     0.00000000    0.00000003    0.00000002
     The local contribution  to forces
     atom    1 type  1   force =    -1.84774620   -1.84774620   -1.84774620
     atom    2 type  1   force =     1.84774620    1.84774620   -1.84774620
     atom    3 type  1   force =     0.00000000    0.00000000   -0.45916491
     atom    4 type  1   force =    -1.84774620    1.84774620    1.84774620
     atom    5 type  1   force =    -0.45916491    0.00000000   -0.00000000
     atom    6 type  1   force =    -0.14252229    0.14252229   -0.14252227
     atom    7 type  1   force =    -0.00000000    0.45916492   -0.00000000
     atom    8 type  1   force =     1.84774620   -1.84774620    1.84774620
     atom    9 type  1   force =     0.00000000   -0.45916491    0.00000000
     atom   10 type  1   force =     0.14252228   -0.14252228   -0.14252228
     atom   11 type  1   force =     0.45916492    0.00000000    0.00000000
     atom   12 type  1   force =    -0.14252228   -0.14252228    0.14252228
     atom   13 type  1   force =    -0.00000000   -0.00000000    0.45916492
     atom   14 type  1   force =     0.14252228    0.14252228    0.14252228
     atom   15 type  1   force =     0.00000001    0.00000001    0.00000001
     The core correction contribution to forces
     atom    1 type  1   force =     0.00000000    0.00000000    0.00000000
     atom    2 type  1   force =     0.00000000    0.00000000    0.00000000
     atom    3 type  1   force =     0.00000000    0.00000000    0.00000000
     atom    4 type  1   force =     0.00000000    0.00000000    0.00000000
     atom    5 type  1   force =     0.00000000    0.00000000    0.00000000
     atom    6 type  1   force =     0.00000000    0.00000000    0.00000000
     atom    7 type  1   force =     0.00000000    0.00000000    0.00000000
     atom    8 type  1   force =     0.00000000    0.00000000    0.00000000
     atom    9 type  1   force =     0.00000000    0.00000000    0.00000000
     atom   10 type  1   force =     0.00000000    0.00000000    0.00000000
     atom   11 type  1   force =     0.00000000    0.00000000    0.00000000
     atom   12 type  1   force =     0.00000000    0.00000000    0.00000000
     atom   13 type  1   force =     0.00000000    0.00000000    0.00000000
     atom   14 type  1   force =     0.00000000    0.00000000    0.00000000
     atom   15 type  1   force =     0.00000000    0.00000000    0.00000000
     The Hubbard contrib.    to forces
     atom    1 type  1   force =     0.00000000    0.00000000    0.00000000
     atom    2 type  1   force =     0.00000000    0.00000000    0.00000000
     atom    3 type  1   force =     0.00000000    0.00000000    0.00000000
     atom    4 type  1   force =     0.00000000    0.00000000    0.00000000
     atom    5 type  1   force =     0.00000000    0.00000000    0.00000000
     atom    6 type  1   force =     0.00000000    0.00000000    0.00000000
     atom    7 type  1   force =     0.00000000    0.00000000    0.00000000
     atom    8 type  1   force =     0.00000000    0.00000000    0.00000000
     atom    9 type  1   force =     0.00000000    0.00000000    0.00000000
     atom   10 type  1   force =     0.00000000    0.00000000    0.00000000
     atom   11 type  1   force =     0.00000000    0.00000000    0.00000000
     atom   12 type  1   force =     0.00000000    0.00000000    0.00000000
     atom   13 type  1   force =     0.00000000    0.00000000    0.00000000
     atom   14 type  1   force =     0.00000000    0.00000000    0.00000000
     atom   15 type  1   force =     0.00000000    0.00000000    0.00000000
     The SCF correction term to forces
     atom    1 type  1   force =     0.00000210    0.00000210    0.00000210
     atom    2 type  1   force =    -0.00000210   -0.00000210    0.00000210
     atom    3 type  1   force =    -0.00000000    0.00000000    0.00000124
     atom    4 type  1   force =     0.00000210   -0.00000210   -0.00000210
     atom    5 type  1   force =     0.00000124   -0.00000000    0.00000000
     atom    6 type  1   force =    -0.00000187    0.00000187   -0.00000187
     atom    7 type  1   force =     0.00000000   -0.00000124    0.00000000
     atom    8 type  1   force =    -0.00000210    0.00000210   -0.00000210
     atom    9 type  1   force =     0.00000000    0.00000124    0.00000000
     atom   10 type  1   force =     0.00000187   -0.00000187   -0.00000187
     atom   11 type  1   force =    -0.00000124    0.00000000    0.00000000
     atom   12 type  1   force =    -0.00000187   -0.00000187    0.00000187
     atom   13 type  1   force =     0.00000000    0.00000000   -0.00000124
     atom   14 type  1   force =     0.00000187    0.00000187    0.00000187
     atom   15 type  1   force =    -0.00000000   -0.00000000   -0.00000000

     Total force =     0.064343     Total SCF correction =     0.000010


     Computing stress (Cartesian axis) and pressure

          total   stress  (Ry/bohr**3)                   (kbar)     P= -170.96
  -0.00116217   0.00000000   0.00000000       -170.96      0.00      0.00
   0.00000000  -0.00116217  -0.00000000          0.00   -170.96     -0.00
   0.00000000   0.00000000  -0.00116217          0.00      0.00   -170.96

     kinetic stress (kbar)  19906.28     -0.00     -0.00
                               -0.00  19906.28     -0.00
                               -0.00     -0.00  19906.28

     local   stress (kbar)  -8546.33     -0.00     -0.00
                               -0.00  -8546.33     -0.00
                               -0.00     -0.00  -8546.33

     nonloc. stress (kbar)   5395.56      0.00     -0.00
                                0.00   5395.56      0.00
                               -0.00      0.00   5395.56

     hartree stress (kbar)   1483.56      0.00      0.00
                                0.00   1483.56      0.00
                                0.00      0.00   1483.56

     exc-cor stress (kbar)  -3856.93      0.00      0.00
                                0.00  -3856.93      0.00
                                0.00      0.00  -3856.93

     corecor stress (kbar)      0.00      0.00      0.00
                                0.00      0.00      0.00
                                0.00      0.00      0.00

     ewald   stress (kbar) -14553.11      0.00      0.00
                                0.00 -14553.11      0.00
                                0.00      0.00 -14553.11

     hubbard stress (kbar)      0.00      0.00      0.00
                                0.00      0.00      0.00
                                0.00      0.00      0.00

     london  stress (kbar)      0.00      0.00      0.00
                                0.00      0.00      0.00
                                0.00      0.00      0.00

     DFT-D3  stress (kbar)      0.00      0.00      0.00
                                0.00      0.00      0.00
                                0.00      0.00      0.00

     XDM     stress (kbar)      0.00      0.00      0.00
                                0.00      0.00      0.00
                                0.00      0.00      0.00

     dft-nl  stress (kbar)      0.00      0.00      0.00
                                0.00      0.00      0.00
                                0.00      0.00      0.00

     TS-vdW  stress (kbar)      0.00      0.00      0.00
                                0.00      0.00      0.00
                                0.00      0.00      0.00



     Writing output data file pwscf.save/

     init_run     :      0.26s CPU      0.45s WALL (       1 calls)
     electrons    :      3.49s CPU      4.75s WALL (       1 calls)
     forces       :      0.08s CPU      0.09s WALL (       1 calls)
     stress       :      0.08s CPU      0.11s WALL (       1 calls)

     Called by init_run:
     wfcinit      :      0.18s CPU      0.28s WALL (       1 calls)
     wfcinit:atom :      0.00s CPU      0.00s WALL (       3 calls)
     wfcinit:wfcr :      0.18s CPU      0.27s WALL (       3 calls)
     potinit      :      0.02s CPU      0.05s WALL (       1 calls)
     hinit0       :      0.04s CPU      0.06s WALL (       1 calls)

     Called by electrons:
     c_bands      :      3.05s CPU      4.18s WALL (       8 calls)
     sum_band     :      0.37s CPU      0.47s WALL (       8 calls)
     v_of_rho     :      0.03s CPU      0.04s WALL (       9 calls)
     v_h          :      0.01s CPU      0.01s WALL (       9 calls)
     v_xc         :      0.02s CPU      0.03s WALL (       9 calls)
     mix_rho      :      0.03s CPU      0.03s WALL (       8 calls)

     Called by c_bands:
     init_us_2    :      0.01s CPU      0.01s WALL (      57 calls)
     cegterg      :      3.00s CPU      4.11s WALL (      24 calls)

     Called by sum_band:

     Called by *egterg:
     h_psi        :      2.14s CPU      2.96s WALL (      95 calls)
     g_psi        :      0.00s CPU      0.00s WALL (      68 calls)
     cdiaghg      :      0.39s CPU      0.51s WALL (      92 calls)
     cegterg:over :      0.29s CPU      0.44s WALL (      68 calls)
     cegterg:upda :      0.10s CPU      0.11s WALL (      68 calls)
     cegterg:last :      0.04s CPU      0.04s WALL (      24 calls)

     Called by h_psi:
     h_psi:pot    :      2.13s CPU      2.95s WALL (      95 calls)
     h_psi:calbec :      0.09s CPU      0.16s WALL (      95 calls)
     vloc_psi     :      2.01s CPU      2.75s WALL (      95 calls)
     add_vuspsi   :      0.03s CPU      0.04s WALL (      95 calls)

     General routines
     calbec       :      0.11s CPU      0.19s WALL (     110 calls)
     fft          :      0.02s CPU      0.05s WALL (      32 calls)
     ffts         :      0.01s CPU      0.01s WALL (       8 calls)
     fftw         :      2.24s CPU      3.05s WALL (    5366 calls)

     Parallel routines
     fft_scatt_xy :      0.12s CPU      0.13s WALL (    5406 calls)
     fft_scatt_yz :      1.33s CPU      2.06s WALL (    5406 calls)

     PWSCF        :     4.23s CPU         5.92s WALL


   This run was terminated on:  15:10:59   4Nov2019            

=------------------------------------------------------------------------------=
   JOB DONE.
=------------------------------------------------------------------------------=
