<PP_INFO>
Generated using ppconvert
Author:  Kenneth P. Esler  Generation date: 10/05/09
<PP_INFO/>
<PP_HEADER>
   0                  Version Number
   H                  Element
  NC                  Norm - Conserving pseudopotential
   F                  Nonlinear Core Correction
  SLA   PW  PBE  PBE  Exchange-Corelation functional
  1.0000000000        Z valence
  0.0000000000       Total energy
  0.000000  0.000000  Suggested cutoff for wfc and rho
  0                   Max angular momentum component
  2000                Number of points in mesh
  1   0               Number of Wavefunctions, Number of Projectors
 WaveFunctions      nl   l   occ    
                    0s   0   0.0000
<PP_HEADER/>
<PP_MESH>
  <PP_R>
  3.50469112008e-06 7.03135515348342752e-06 1.05801298609797935e-05 1.41511538670299356e-05
  1.77445666652e-05 2.13605086236738642e-05 2.49991209906045445e-05 2.86605458997634732e-05
  3.23449263760e-05 3.60524063409752038e-05 3.97831306185164184e-05 4.35372449405418551e-05
  4.73148959526e-05 5.11162312197226116e-05 5.49413992319931893e-05 5.87905494105431812e-05
  6.26638321133e-05 6.65613986408343880e-05 7.04834012423618010e-05 7.44299931215984013e-05
  7.84013284428e-05 8.23975623367316138e-05 8.64188509068137986e-05 9.04653512351340309e-05
  9.45372213886e-05 9.86346204252350363e-05 1.02757708400132370e-04 1.06906646371966160e-04
  1.11081596409e-04 1.15282721596211086e-04 1.19510186040125768e-04 1.23764154876764926e-04
  1.28044794277e-04 1.32352271454833298e-04 1.36686754670658388e-04 1.41048413241104241e-04
  1.45437417544e-04 1.49853939025424262e-04 1.54298150206269086e-04 1.58770224689112178e-04
  1.63270337165e-04 1.67798663419943230e-04 1.72355380342467142e-04 1.76940665929837637e-04
  1.81554699295e-04 1.86197660675287082e-04 1.90869731435900432e-04 1.95571094080554126e-04
  2.00301932257e-04 2.05062430763678629e-04 2.09852775558695562e-04 2.14673153765327669e-04
  2.19523753680e-04 2.24404764780523430e-04 2.29316377731379756e-04 2.34258784393286129e-04
  2.39232177830e-04 2.44236752314228435e-04 2.49272703338905056e-04 2.54340227621138281e-04
  2.59439523112e-04 2.64570789002588141e-04 2.69734225734409561e-04 2.74930035004607989e-04
  2.80158419775e-04 2.85419584280461821e-04 2.90713734035469567e-04 2.96041075843565024e-04
  3.01401817805e-04 3.06796169323584039e-04 3.12224341117714205e-04 3.17686545225756383e-04
  3.23182995016e-04 3.28713905193473571e-04 3.34279491810799377e-04 3.39879972274165817e-04
  3.45515565353e-04 3.51186491188531927e-04 3.56892971301864606e-04 3.62635228603155760e-04
  3.68413487400e-04 3.74227973406550873e-04 3.80078913751722780e-04 3.85966536988678415e-04
  3.91891073103e-04 3.97852753523980326e-04 4.03851811129171581e-04 4.09888480257973164e-04
  4.15962996719e-04 4.22075597797445768e-04 4.28226522268945243e-04 4.34416010404308677e-04
  4.40644303981e-04 4.46911646293138396e-04 4.53218282158970582e-04 4.59564457932465256e-04
  4.65950421512e-04 4.72376422349850072e-04 4.78842711462729490e-04 4.85349541440799250e-04
  4.91897166458e-04 4.98485842281564924e-04 5.05115826282682783e-04 5.11787377445879332e-04
  5.18500756379e-04 5.25256225325674230e-04 5.32054048170855229e-04 5.38894490455833113e-04
  5.45777819386e-04 5.52704303843029945e-04 5.59674214392840634e-04 5.66687823298703047e-04
  5.73745404531e-04 5.80847233776216813e-04 5.87993588451640259e-04 5.95184747712266030e-04
  6.02420992464e-04 6.09702605372572761e-04 6.17029870877914871e-04 6.24403075201933485e-04
  6.31822506361e-04 6.39288454178667774e-04 6.46801210293392200e-04 6.54361068173524556e-04
  6.61968323127e-04 6.69623272313106467e-04 6.77326214754345722e-04 6.85077451347861186e-04
  6.92877284877e-04 7.00726020024705024e-04 7.08623963382237179e-04 7.16571423464330815e-04
  7.24568710720e-04 7.32616137543263624e-04 7.40714018288786782e-04 7.48862669280721868e-04
  7.57062408827e-04 7.65313557230342919e-04 7.73616436802931256e-04 7.81971371876838688e-04
  7.90378688818e-04 7.98838716037638427e-04 8.07351784007306656e-04 8.15918225269583698e-04
  8.24538374452e-04 8.33212568280741099e-04 8.41941145592094283e-04 8.50724447347391412e-04
  8.59562816645e-04 8.68456598736266818e-04 8.77406141034263866e-04 8.86411793132098661e-04
  8.95473906814e-04 9.04592836070540886e-04 9.13768937110450027e-04 9.23002568376542795e-04
  9.32294090559e-04 9.41643866608231502e-04 9.51052261751910268e-04 9.60519643506382143e-04
  9.70046381692e-04 9.79632848449537869e-04 9.89279418250220508e-04 9.98986467914857786e-04
  1.00875437663e-03 1.01858352594475757e-03 1.02847429982259159e-03 1.03842708461942559e-03
  1.04844226912e-03 1.05852024453527665e-03 1.06866140454590810e-03 1.07886614528942756e-03
  1.08913486539e-03 1.09946796597026517e-03 1.10986585066882295e-03 1.12032892565418533e-03
  1.13085759964e-03 1.14145228390858094e-03 1.15211339231148209e-03 1.16284134130115462e-03
  1.17363654994e-03 1.18449943991564112e-03 1.19543043556268568e-03 1.20642996387401225e-03
  1.21749845452e-03 1.22863633986525418e-03 1.23984405498455525e-03 1.25112203768079503e-03
  1.26247072850e-03 1.27389057075666585e-03 1.28538201053501606e-03 1.29694549672248354e-03
  1.30858148102e-03 1.32029041795733433e-03 1.33207276491867236e-03 1.34392898215265791e-03
  1.35585953279e-03 1.36786488288220256e-03 1.37994550137692787e-03 1.39210186017915531e-03
  1.40433443415e-03 1.41664370112052967e-03 1.42903014192845811e-03 1.44149424041890265e-03
  1.45403648347e-03 1.46665736102159837e-03 1.47935736607144870e-03 1.49213699471740678e-03
  1.50499674617e-03 1.51793712275093075e-03 1.53095862995927877e-03 1.54406177644466724e-03
  1.55724707405e-03 1.57051503782890556e-03 1.58386618606164218e-03 1.59730104027955722e-03
  1.61082012528e-03 1.62442396916400193e-03 1.63811310332339028e-03 1.65188806249505970e-03
  1.66574938477e-03 1.67969761159319012e-03 1.69373328783369763e-03 1.70785696175701756e-03
  1.72206918507e-03 1.73637051294229659e-03 1.75076150401847538e-03 1.76524272044941105e-03
  1.77981472791e-03 1.79447809561952484e-03 1.80923339636926308e-03 1.82408120653948882e-03
  1.83902210612e-03 1.85405667875561094e-03 1.86918551172220214e-03 1.88440919599641124e-03
  1.89972832626e-03 1.91514350090446137e-03 1.93065532210099635e-03 1.94626439577743216e-03
  1.96197133167e-03 1.97777674331846461e-03 1.99368124813814303e-03 2.00968546739597282e-03
  2.02579002626e-03 2.04199555381301369e-03 2.05830268308908370e-03 2.07471205108632466e-03
  2.09122429880e-03 2.10784007123516722e-03 2.12456001745426910e-03 2.14138479058009019e-03
  2.15831504783e-03 2.17535145055173683e-03 2.19249466422453618e-03 2.20974535850983374e-03
  2.22710420727e-03 2.24457188857247504e-03 2.26214908476557799e-03 2.27983648245583736e-03
  2.29763477256e-03 2.31554465032446236e-03 2.33356681535767420e-03 2.35170197165222687e-03
  2.36995082761e-03 2.38831409609415206e-03 2.40679249440729163e-03 2.42538674436916946e-03
  2.44409757232e-03 2.46292570915399717e-03 2.48187189034753276e-03 2.50093685598825732e-03
  2.52012135080e-03 2.53942612419097566e-03 2.55885193024490238e-03 2.57839952778861608e-03
  2.59806968040e-03 2.61786315645478294e-03 2.63778072913024983e-03 2.65782317646174509e-03
  2.67799128136e-03 2.69828583164392769e-03 2.71870762007222740e-03 2.73925744437352467e-03
  2.75993610728e-03 2.78074441654838208e-03 2.80168318501206959e-03 2.82275323059230903e-03
  2.84395537634e-03 2.86529045046796712e-03 2.88675928637894532e-03 2.90836272270250445e-03
  2.93010160333e-03 2.95197677742608860e-03 2.97398909950567216e-03 2.99613942942350379e-03
  3.01842863243e-03 3.04085757919897491e-03 3.06342714586502630e-03 3.08613821405438315e-03
  3.10899167092e-03 3.13198840918105020e-03 3.15512932714743588e-03 3.17841532876524590e-03
  3.20184732365e-03 3.22542622710761265e-03 3.24915296020136368e-03 3.27302844975665974e-03
  3.29705362841e-03 3.32122943465652494e-03 3.34555681285819565e-03 3.37003671330916464e-03
  3.39467009226e-03 3.41945791195116594e-03 3.44440114066405477e-03 3.46950075274536553e-03
  3.49475772865e-03 3.52017305498745093e-03 3.54574772454147600e-03 3.57148273632774092e-03
  3.59737909562e-03 3.62343781400833575e-03 3.64965990940449309e-03 3.67604640611582422e-03
  3.70259833487e-03 3.72931673284975906e-03 3.75620264375127336e-03 3.78325711780707133e-03
  3.81048121184e-03 3.83787598928264986e-03 3.86544252025904436e-03 3.89318188158628998e-03
  3.92109515684e-03 3.94918343637618106e-03 3.97744781740668341e-03 4.00588940400919882e-03
  4.03450930719e-03 4.06330864490815364e-03 4.09228854215098938e-03 4.12145013094625430e-03
  4.15079455042e-03 4.18032294684898657e-03 4.21003647368331339e-03 4.23993629161361057e-03
  4.27002356861e-03 4.30029947994653439e-03 4.33076520829387725e-03 4.36142194371874105e-03
  4.39227088375e-03 4.42331323343954884e-03 4.45455020537186951e-03 4.48598301974889851e-03
  4.51761290442e-03 4.54944109492840063e-03 4.58146883457000685e-03 4.61369737443141290e-03
  4.64612797344e-03 4.67876189843233550e-03 4.71160042416309075e-03 4.74464483339541530e-03
  4.77789641693e-03 4.81135647366328408e-03 4.84502631063076124e-03 4.87890724306545755e-03
  4.91300059445e-03 4.94730769654709145e-03 4.98182988949543749e-03 5.01656852181820052e-03
  5.05152495050e-03 5.08670054102364471e-03 5.12209666744724550e-03 5.15771471243411331e-03
  5.19355606732e-03 5.22962213215836472e-03 5.26591431578847698e-03 5.30243403587703221e-03
  5.33918271898e-03 5.37616180059820575e-03 5.41337272523100682e-03 5.45081694643512193e-03
  5.48849592688e-03 5.52641113840620941e-03 5.56456406208091781e-03 5.60295618825775842e-03
  5.64158901663e-03 5.68046405630953828e-03 5.71958282584543194e-03 5.75894685332362793e-03
  5.79855767641e-03 5.83841684239672955e-03 5.87852590829819090e-03 5.91888644087632497e-03
  5.95950001672e-03 6.00036822230089022e-03 6.04149265403976666e-03 6.08287491836454700e-03
  6.12451663178e-03 6.16641942090641933e-03 6.20858492259126690e-03 6.25101478392499875e-03
  6.29371066233e-03 6.33667422561787382e-03 6.37990715205984625e-03 6.42341113044707975e-03
  6.46718786016e-03 6.51123905123046111e-03 6.55556642441593521e-03 6.60017171125933458e-03
  6.64505665416e-03 6.69022300644275727e-03 6.73567253242295279e-03 6.78140700747881936e-03
  6.82742821812e-03 6.87373796205319534e-03 6.92033804826135482e-03 6.96723029706538145e-03
  7.01441654020e-03 7.06189862088294276e-03 7.10967839388991409e-03 7.15775772562407282e-03
  7.20613849419e-03 7.25482258946892177e-03 7.30381191318819466e-03 7.35310837899994050e-03
  7.40271391255e-03 7.45263045157170539e-03 7.50285994592534214e-03 7.55340435771054055e-03
  7.60426566132e-03 7.65544584354430069e-03 7.70694690360138133e-03 7.75877085326275896e-03
  7.81091971691e-03 7.86339553160889625e-03 7.91620034720845293e-03 7.96933622640155943e-03
  8.02280524482e-03 8.07660949108985997e-03 8.13075106696059188e-03 8.18523208733964135e-03
  8.24005468040e-03 8.29522098765257329e-03 8.35073316404185903e-03 8.40659337801809986e-03
  8.46280381163e-03 8.51936666059880006e-03 8.57628413442395113e-03 8.63355845644952179e-03
  8.69119186396e-03 8.74918660827068810e-03 8.80754495480566904e-03 8.86626918319627366e-03
  8.92536158737e-03 8.98482447561681219e-03 9.04466017072792956e-03 9.10487101003794493e-03
  9.16545934554e-03 9.22642754397491952e-03 9.28777798691944254e-03 9.34951307088346430e-03
  9.41163520740e-03 9.47414682312758445e-03 9.53705035992947342e-03 9.60034827498463389e-03
  9.66404304088e-03 9.72813714568822319e-03 9.79263309310566404e-03 9.85753340250939032e-03
  9.92284060908e-03 9.98855726387652167e-03 1.00546859339761749e-02 1.01212292025345298e-02
  1.01881896689e-02 1.02555699487437476e-02 1.03233726740970880e-02 1.03916004935190893e-02
  1.04602560722e-02 1.05293420919099368e-02 1.05988612514274858e-02 1.06688162663212682e-02
  1.07392098692e-02 1.08100448098766063e-02 1.08813238552960996e-02 1.09530497898232115e-02
  1.10252254153e-02 1.10978535509801378e-02 1.11709370340252936e-02 1.12444787192296832e-02
  1.13184814793e-02 1.13929482050526901e-02 1.14678818052794777e-02 1.15432852071083881e-02
  1.16191613560e-02 1.16955132158592084e-02 1.17723437692070620e-02 1.18496560172412224e-02
  1.19274529800e-02 1.20057376963807628e-02 1.20845132244465810e-02 1.21637826413577375e-02
  1.22435490436e-02 1.23238155470163490e-02 1.24045852870695288e-02 1.24858614188236971e-02
  1.25676471171e-02 1.26499455767769275e-02 1.27327600125342801e-02 1.28160936593595641e-02
  1.28999497725e-02 1.29843316275475296e-02 1.30692425207272426e-02 1.31546857688656475e-02
  1.32406647096e-02 1.33271827014950842e-02 1.34142431241694709e-02 1.35018493784325004e-02
  1.35900048864e-02 1.36787130917015443e-02 1.37679774594688473e-02 1.38578014766172330e-02
  1.39481886519e-02 1.40391425161040789e-02 1.41306666220999480e-02 1.42227645450684406e-02
  1.43154398826e-02 1.44086962548259159e-02 1.45025373045959624e-02 1.45969666975844497e-02
  1.46919881225e-02 1.47876052909837481e-02 1.48838219382388635e-02 1.49806418226919019e-02
  1.50780687264e-02 1.51761064550597208e-02 1.52747588383365454e-02 1.53740297298336770e-02
  1.54739230073e-02 1.55744425729281467e-02 1.56755923531776559e-02 1.57773762992575971e-02
  1.58797983871e-02 1.59828626176296493e-02 1.60865730167571927e-02 1.61909336356996052e-02
  1.62959485511e-02 1.64016218649873577e-02 1.65079577053684513e-02 1.66149602259573967e-02
  1.67226336066e-02 1.68309820531626492e-02 1.69400097981590586e-02 1.70497211004531288e-02
  1.71601202457e-02 1.72712115462499982e-02 1.73829993417514879e-02 1.74954879988860265e-02
  1.76086819118e-02 1.77225855020132529e-02 1.78372032190310323e-02 1.79525395400785513e-02
  1.80685989705e-02 1.81853860438682402e-02 1.83029053222065613e-02 1.84211613961222515e-02
  1.85401588850e-02 1.86599024372190586e-02 1.87803967302524570e-02 1.89016464709320688e-02
  1.90236563956e-02 1.91464312702583697e-02 1.92699758908424154e-02 1.93942950833208907e-02
  1.95193937039e-02 1.96452766393446950e-02 1.97719488068889560e-02 1.98994151547085239e-02
  2.00276806620e-02 2.01567503390724795e-02 2.02866292278052265e-02 2.04173224015826472e-02
  2.05488349656e-02 2.06811720571539459e-02 2.08143388456085432e-02 2.09483405328318682e-02
  2.10831823533e-02 2.12188695742342795e-02 2.13554074959884550e-02 2.14928014520743109e-02
  2.16310568095e-02 2.17701789687651803e-02 2.19101733644647204e-02 2.20510454651082211e-02
  2.21928007735e-02 2.23354448270648952e-02 2.24789831977643025e-02 2.26234214926141243e-02
  2.27687653538e-02 2.29150204586958048e-02 2.30621925205493523e-02 2.32102872882416315e-02
  2.33593105467e-02 2.35092681172944656e-02 2.36601658576316744e-02 2.38120096622171235e-02
  2.39648054625e-02 2.41185592269919161e-02 2.42732769618126225e-02 2.44289647106120424e-02
  2.45856285550e-02 2.47432746145658210e-02 2.49019090474907785e-02 2.50615380504152357e-02
  2.52221678589e-02 2.53838047474696342e-02 2.55464550301834001e-02 2.57101250605560813e-02
  2.58748212320e-02 2.60405499778874235e-02 2.62073177721114312e-02 2.63751311290292244e-02
  2.65439966039e-02 2.67139207929670830e-02 2.68849103340014703e-02 2.70569719062752519e-02
  2.72301122310e-02 2.74043380713881214e-02 2.75796562332622057e-02 2.77560735649757251e-02
  2.79335969579e-02 2.81122333464245318e-02 2.82919897086965806e-02 2.84728730664250244e-02
  2.86548904854e-02 2.88380490756671784e-02 2.90223559919151608e-02 2.92078184336453696e-02
  2.93944436455e-02 2.95822389175741107e-02 2.97712115856204156e-02 2.99613690314157605e-02
  3.01527186830e-02 3.03452680150219749e-02 3.05390245489356796e-02 3.07339958533899837e-02
  3.09301895445e-02 3.11276132860353917e-02 3.13262747899575172e-02 3.15261818164828608e-02
  3.17273421745e-02 3.19297637218762045e-02 3.21334543657137151e-02 3.23384220627092253e-02
  3.25446748194e-02 3.27522206926790793e-02 3.29610677897149984e-02 3.31712242686635975e-02
  3.33826983388e-02 3.35954982608239541e-02 3.38096323472925481e-02 3.40251089628346853e-02
  3.42419365245e-02 3.44601235022419933e-02 3.46796784189178989e-02 3.49006098509527102e-02
  3.51229264285e-02 3.53466368358549970e-02 3.55717498117082837e-02 3.57982741495726578e-02
  3.60262186981e-02 3.62555923613548867e-02 3.64864040993235494e-02 3.67186629281026772e-02
  3.69523779203e-02 3.71875582055341963e-02 3.74242129704679474e-02 3.76623514594905187e-02
  3.79019829749e-02 3.81431168773835177e-02 3.83857625862142823e-02 3.86299295797879264e-02
  3.88756273959e-02 3.91228656321788992e-02 3.93716539463734166e-02 3.96220020568175055e-02
  3.98739197428e-02 4.01274168447855878e-02 4.03825032651390081e-02 4.06391889681720145e-02
  4.08974839807e-02 4.11573983924123366e-02 4.14189423562411826e-02 4.16821260887833764e-02
  4.19469598707e-02 4.22134540470552391e-02 4.24816190278508102e-02 4.27514652883024052e-02
  4.30230033693e-02 4.32962438778758882e-02 4.35711974874807631e-02 4.38478749385387279e-02
  4.41262870388e-02 4.44064446637664270e-02 4.46883587571370450e-02 4.49720403312149561e-02
  4.52575004673e-02 4.55447503163580944e-02 4.58338010989799288e-02 4.61246641062961482e-02
  4.64173507002e-02 4.67118723137387309e-02 4.70082404517603442e-02 4.73064666911628823e-02
  4.76065626814e-02 4.79085401451498014e-02 4.82124108783050023e-02 4.85181867509015957e-02
  4.88258797073e-02 4.91355017669407035e-02 4.94470650243296200e-02 4.97605816499944176e-02
  5.00760638907e-02 5.03935240700661424e-02 5.07129745888668035e-02 5.10344279256967556e-02
  5.13578966374e-02 5.16833933594176217e-02 5.20109308066033088e-02 5.23405217733980480e-02
  5.26721791345e-02 5.30059158452897486e-02 5.33417449424272438e-02 5.36796795442701577e-02
  5.40197328514e-02 5.43619181472880381e-02 5.47062487984951371e-02 5.50527382555131284e-02
  5.54014000531e-02 5.57522478109927777e-02 5.61052952341354813e-02 5.64605561135182801e-02
  5.68180443266e-02 5.71777738377029290e-02 5.75397586989132778e-02 5.79040130502753159e-02
  5.82705511205e-02 5.86393872275899619e-02 5.90105357791898752e-02 5.93840112733581421e-02
  5.97598282990e-02 6.01380015366020509e-02 6.05185457585182413e-02 6.09014758298342951e-02
  6.12868067088e-02 6.16745534474664736e-02 6.20647311922252892e-02 6.24573551844491912e-02
  6.28524407611e-02 6.32500033551464114e-02 6.36500584965398047e-02 6.40526218124475855e-02
  6.44577090281e-02 6.48653359671195334e-02 6.52755185526336518e-02 6.56882728074024008e-02
  6.61036148547e-02 6.65215609188517798e-02 6.69421273259552113e-02 6.73653305044304151e-02
  6.77911869857e-02 6.82197134048526388e-02 6.86509265012404807e-02 6.90848431191850437e-02
  6.95214802086e-02 6.99608548257055346e-02 7.04029841336000911e-02 7.08478854030255151e-02
  7.12955760130e-02 7.17460734514773907e-02 7.21993953160886687e-02 7.26555593147710232e-02
  7.31145832665e-02 7.35764851019230504e-02 7.40412828641733994e-02 7.45089947094612903e-02
  7.49796389078e-02 7.54532338439091316e-02 7.59297980175302756e-02 7.64093500445524043e-02
  7.68919086575e-02 7.73774927064925927e-02 7.78661211596066438e-02 7.83578131039904952e-02
  7.88525877464e-02 7.93504644141026366e-02 7.98514625553988500e-02 8.03556017406157480e-02
  8.08629016628e-02 8.13733821382821021e-02 8.18870631079077482e-02 8.24039646373594253e-02
  8.29241069182e-02 8.34475102684601039e-02 8.39741951337430043e-02 8.45041820877120153e-02
  8.50374918330e-02 8.55741452022367455e-02 8.61141631583626083e-02 8.66575667959477852e-02
  8.72043773418e-02 8.77546161556733151e-02 8.83083047314439373e-02 8.88654646976079349e-02
  8.94261178183e-02 8.99902859940962530e-02 9.05579912628954181e-02 9.11292558007543163e-02
  9.17041019228e-02 9.22825520839316848e-02 9.28646288800328429e-02 9.34503550485188961e-02
  9.40397534694e-02 9.46328471661052745e-02 9.52296593064543007e-02 9.58302132034898752e-02
  9.64345323164e-02 9.70426402515521536e-02 9.76545607631644635e-02 9.82703177544849982e-02
  9.88899352786e-02 9.95134375393959547e-02 1.00140848892511194e-01 1.00772193846280694e-01
  1.01407497063e-01 1.02046783358373042e-01 1.02690077705510710e-01 1.03337405232877461e-01
  1.03988791227e-01 1.04644261132087621e-01 1.05303840553155753e-01 1.05967555254896470e-01
  1.06635431164e-01 1.07307494368703182e-01 1.07983771122311181e-01 1.08664287841720317e-01
  1.09349071110e-01 1.10038147675688439e-01 1.10731544456821818e-01 1.11429288539001761e-01
  1.12131407178e-01 1.12837927800250371e-01 1.13548878004469472e-01 1.14264285562184917e-01
  1.14984178419e-01 1.15708584696107564e-01 1.16437532690433262e-01 1.17171050876696450e-01
  1.17909167908e-01 1.18651912617267694e-01 1.19399314017925764e-01 1.20151401305480965e-01
  1.20908203858e-01 1.21669751239494778e-01 1.22436073196690753e-01 1.23207199664575315e-01
  1.23983160765e-01 1.24763986810166941e-01 1.25549708300069729e-01 1.26340355927428483e-01
  1.27135960577e-01 1.27936553327241548e-01 1.28742165451359969e-01 1.29552828418697530e-01
  1.30368573896e-01 1.31189433748067769e-01 1.32015440040204046e-01 1.32846625038264610e-01
  1.33683021211e-01 1.34524661228798748e-01 1.35371577969774393e-01 1.36223804516238806e-01
  1.37081374158e-01 1.37944320395180703e-01 1.38812676935528456e-01 1.39686477699730721e-01
  1.40565756821e-01 1.41450548645512209e-01 1.42340887736336907e-01 1.43236808872199417e-01
  1.44138347050e-01 1.45045537486586884e-01 1.45958415618803544e-01 1.46877017106200686e-01
  1.47801377832e-01 1.48731533903457475e-01 1.49667521655615171e-01 1.50609377650379822e-01
  1.51557138679e-01 1.52510841763873750e-01 1.53470524158786731e-01 1.54436223351575364e-01
  1.55407977065e-01 1.56385823258275242e-01 1.57369800128680792e-01 1.58359946112925198e-01
  1.59356299889e-01 1.60358900376237595e-01 1.61367786739710528e-01 1.62382998388883065e-01
  1.63404574981e-01 1.64432556420293891e-01 1.65466982863653744e-01 1.66507894718082694e-01
  1.67555332644e-01 1.68609337558080663e-01 1.69669950631527650e-01 1.70737213295006934e-01
  1.71811167239e-01 1.72891854413774665e-01 1.73979317035005770e-01 1.75073597581442114e-01
  1.76174738799e-01 1.77282783699818314e-01 1.78397775568371858e-01 1.79519757958728765e-01
  1.80648774698e-01 1.81784869889952572e-01 1.82928087912042153e-01 1.84078473421837363e-01
  1.85236071356e-01 1.86400926934601252e-01 1.87573085658705868e-01 1.88752593316330985e-01
  1.89939495982e-01 1.91133840019683032e-01 1.92335672083161990e-01 1.93545039119299489e-01
  1.94761988369e-01 1.95986567369945325e-01 1.97218823956961359e-01 1.98458806265376764e-01
  1.99706562732e-01 2.00962142097951491e-01 2.02225593408985022e-01 2.03496966018986175e-01
  2.04776309591e-01 2.06063674099875638e-01 2.07359109833124555e-01 2.08662667393979512e-01
  2.09974397703e-01 2.11294351999287533e-01 2.12622581844255476e-01 2.13959139121873837e-01
  2.15304076042e-01 2.16657445140147703e-01 2.18019299283724960e-01 2.19389691669914233e-01
  2.20768675830e-01 2.22156305630252460e-01 2.23552635275611089e-01 2.24957719310222265e-01
  2.26371612620e-01 2.27794370436411070e-01 2.29226048335033961e-01 2.30666702241328320e-01
  2.32116388431e-01 2.33575163532662333e-01 2.35043084529840823e-01 2.36520208763407208e-01
  2.38006593934e-01 2.39502298102871741e-01 2.41007379697014384e-01 2.42521897508582801e-01
  2.44045910699e-01 2.45579478799090728e-01 2.47122661715187958e-01 2.48675519727692862e-01
  2.50238113495e-01 2.51810504057083273e-01 2.53392752834692758e-01 2.54984921634941297e-01
  2.56587072652e-01 2.58199268470472365e-01 2.59821572066586903e-01 2.61454046811909036e-01
  2.63096756475e-01 2.64749765224988887e-01 2.66413137632166008e-01 2.68086938672419284e-01
  2.69771233729e-01 2.71466088594340627e-01 2.73171569474482678e-01 2.74887742989803618e-01
  2.76614676179e-01 2.78352436499268774e-01 2.80101091833443450e-01 2.81860710488145816e-01
  2.83631361199e-01 2.85413113131383289e-01 2.87206035886098332e-01 2.89010199499121212e-01
  2.90825674446e-01 2.92652531643423586e-01 2.94490842453765500e-01 2.96340678686097869e-01
  2.98202112600e-01 3.00075216907623177e-01 3.01960064777689996e-01 3.03856729837194639e-01
  3.05765286175e-01 3.07685808343900691e-01 3.09618371364968725e-01 3.11563050729048885e-01
  3.13519922400e-01 3.15489062819650001e-01 3.17470548906517103e-01 3.19464458063080659e-01
  3.21470868177e-01 3.23489857622935639e-01 3.25521505268909328e-01 3.27565890476085697e-01
  3.29623093104e-01 3.31693193510957440e-01 3.33776272561952414e-01 3.35872411627046841e-01
  3.37981692587e-01 3.40104197835687183e-01 3.42240010283919704e-01 3.44389213362083224e-01
  3.46551891024e-01 3.48728127748628602e-01 3.50918008546406091e-01 3.53121618959524486e-01
  3.55339045067e-01 3.57570373486710780e-01 3.59815691380817704e-01 3.62075086457133433e-01
  3.64348646974e-01 3.66636461741359054e-01 3.68938620128570927e-01 3.71255212063555551e-01
  3.73586328038e-01 3.75932059112858485e-01 3.78292496917109367e-01 3.80667733656134044e-01
  3.83057862113e-01 3.85462975652164419e-01 3.87883168223919939e-01 3.90318534367267433e-01
  3.92769169214e-01 3.95235168492370725e-01 3.97716628530772998e-01 4.00213646261560085e-01
  4.02726319225e-01 4.05254745572115216e-01 4.07799024070465810e-01 4.10359254106059723e-01
  4.12935535688e-01 4.15527969453237223e-01 4.18136656668421258e-01 4.20761699235936204e-01
  4.23403199697e-01 4.26061261235083921e-01 4.28735987681531261e-01 4.31427483518024513e-01
  4.34135853881e-01 4.36861204567907391e-01 4.39603642036716036e-01 4.42363273414701608e-01
  4.45140206500e-01 4.47934549767857959e-01 4.50746412371720584e-01 4.53575904150642417e-01
  4.56423135632e-01 4.59288218036154217e-01 4.62171263280731326e-01 4.65072383985059901e-01
  4.67991693475e-01 4.70929305785056818e-01 4.73885335667477814e-01 4.76859898592091880e-01
  4.79853110753e-01 4.82865089073357956e-01 4.85895951208526633e-01 4.88945815552084828e-01
  4.92014801240e-01 4.95103028154156244e-01 4.98210616929569250e-01 5.01337688956568273e-01
  5.04484366387e-01 5.07650772137755113e-01 5.10837029897558526e-01 5.14043264129809163e-01
  5.17269600078e-01 5.20516163772609008e-01 5.23783082031623271e-01 5.27070482469893298e-01
  5.30378493502e-01 5.33707244347293219e-01 5.37056865035777764e-01 5.40427486412354163e-01
  5.43819240142e-01 5.47232258716572439e-01 5.50666675456497612e-01 5.54122624519464368e-01
  5.57600240904e-01 5.61099660454705162e-01 5.64621019868332241e-01 5.68164456698354581e-01
  5.71730109361e-01 5.75318117139198781e-01 5.78928620190792165e-01 5.82561759551236791e-01
  5.86217677141e-01 5.89896515768332241e-01 5.93598419139830025e-01 5.97323531861067014e-01
  6.01071999445e-01 6.04843968315815550e-01 6.08639585817332573e-01 6.12459000216074023e-01
  6.16302360708e-01 6.20169817426070913e-01 6.24061521442104028e-01 6.27977624776682508e-01
  6.31918280403e-01 6.35883642253692205e-01 6.39873865225935923e-01 6.43889105188416022e-01
  6.47929518987e-01 6.51995264450723866e-01 6.56086500398429973e-01 6.60203386644493961e-01
  6.64346084005e-01 6.68514754305518100e-01 6.72709560384333605e-01 6.76930666101902778e-01
  6.81178236346e-01 6.85452437036988438e-01 6.89753435137265947e-01 6.94081398654820991e-01
  6.98436496651e-01 7.02818899248210061e-01 7.07228777633771788e-01 7.11666304069399236e-01
  7.16131651897e-01 7.20624995543392100e-01 7.25146510531781807e-01 7.29696373483958105e-01
  7.34274762130e-01 7.38881855312355729e-01 7.43517832997630190e-01 7.48182876278809750e-01
  7.52877167385e-01 7.57600889686768864e-01 7.62354227705894005e-01 7.67137367119989033e-01
  7.71950494771e-01 7.76793798672471225e-01 7.81667468016443934e-01 7.86571693181291165e-01
  7.91506665739e-01 7.96472578462360414e-01 8.01469625333172675e-01 8.06498001549146859e-01
  8.11557903532e-01 8.16649528934405011e-01 8.21773076649017331e-01 8.26928746814941995e-01
  8.32116740826e-01 8.37337261339464067e-01 8.42590512281985227e-01 8.47876698859543643e-01
  8.53196027564e-01 8.58548706183735133e-01 8.63934943807010525e-01 8.69354950834895224e-01
  8.74808938987e-01 8.80297121310736119e-01 8.85819712188617991e-01 8.91376927347656056e-01
  8.96968983867e-01 9.02596100187891714e-01 9.08258496119455083e-01 9.13956392850024280e-01
  9.19690012954e-01 9.25459580402894999e-01 9.31265320569922062e-01 9.37107460242962209e-01
  9.42986227631e-01 9.48901852375148236e-01 9.54854565554237977e-01 9.60844599697220914e-01
  9.66872188791e-01 9.72937568287746246e-01 9.79040975118411039e-01 9.85182647697669944e-01
  9.91362825935e-01 9.97581751245562587e-01 1.00383966655575541e+00 1.01013681631657892e+00
  1.01647344651e+00 1.02284980466518127e+00 1.02926613985568416e+00 1.03572270272166334e+00
  1.04221974547e+00 1.04875752190253624e+00 1.05533628739171093e+00 1.06195629892481680e+00
  1.06861781510e+00 1.07532109612426674e+00 1.08206640385470276e+00 1.08885400177764136e+00
  1.09568415503e+00 1.10255713042898096e+00 1.10947319643758635e+00 1.11643262322001635e+00
  1.12343568263e+00 1.13048264822472633e+00 1.13757379527789459e+00 1.14470940078810179e+00
  1.15188974349e+00 1.15911510386917715e+00 1.16638576416465378e+00 1.17370200838836691e+00
  1.18106412233e+00 1.18847239357917878e+00 1.19592711151632658e+00 1.20342856734434989e+00
  1.21097705409e+00 1.21857286661645858e+00 1.22621630163666162e+00 1.23390765772307920e+00
  1.24164723532e+00 1.24943533675652030e+00 1.25727226625547961e+00 1.26515832994822230e+00
  1.27309383589e+00 1.28107909404785958e+00 1.28911441636162638e+00 1.29720011670721291e+00
  1.30533651093e+00 1.31352391686887349e+00 1.32176265433546725e+00 1.33005304515982670e+00
  1.33839541319e+00 1.34679008428999647e+00 1.35523738638852476e+00 1.36373764945579867e+00
  1.37229120553e+00 1.38089838874876958e+00 1.38955953531802989e+00 1.39827498356933977e+00
  1.40704507395e+00 1.41587014904580188e+00 1.42475055358434122e+00 1.43368663445855904e+00
  1.44267874074e+00 1.45172722366970497e+00 1.46083243671944318e+00 1.46999473555800653e+00
  1.47921447809e+00 1.48849202445936424e+00 1.49782773707485850e+00 1.50722198061280088e+00
  1.51667512204e+00 1.52618753061207157e+00 1.53575957791760742e+00 1.54539163786294975e+00
  1.55508408670e+00 1.56483730304626278e+00 1.57465166788300515e+00 1.58452756458676092e+00