  Input file(s): optm.xml 

=====================================================
                    QMCPACK 1.0.0 

  (c) Copyright 2003-  QMCPACK developers            

  Subversion branch 6925
  Last modified     2016-05-18 12:43:30 -0400 (Wed, 18 May 2016)
=====================================================
  Global options 
  async_swap=0 : using blocking send/recv for walker swaps 

  MPI Nodes            = 320
  MPI Nodes per group  = 320
  MPI Group ID         = 0
  OMP_NUM_THREADS      = 1

  Input XML = optm.xml

  Project = jopt-h2o
  date    = 2016-05-18 22:46:29 EDT
  host    = nid17235
  user    = auser

  DO NOT READ DENSITY
  Offset for the random number seeds based on time 261
  Random number offset = 261  seeds = 1669-4253
  Creating e particleset
  All the species have the same mass 1
Particles are grouped. Safe to use groups 
e
  Creating ion0 particleset
  All the species have the same mass 1
Particles are grouped. Safe to use groups 
ion0
 Adding WavefunctionFactory for psi0
Using MolecularBasisBuilder<NGOBuilder>
<input node="basisset"  name="LCAOBSet"/>
  Distance table for AA: source/target = e
    PBC=open Orthorhombic=NA
 using Cartesian coordinates with 
  ... ParticleSet::addTable Create Table #0 e_e
  Distance table for AB: source = ion0 target = e
    PBC=open Orthorhombic=NA
 using Cartesian coordinates 
  ... ParticleSet::addTable Create Table #1 ion0_e
<input node="atomicBasisSet"  name="Gaussian-G2"  angular="cartesian"  type="Gaussian"  elementType="O"  normalized="no"/>
  AO BasisSet for O
   Angular momentum expanded in cartesian functions x^lx y^ly z^lz according to Gamess
Using log grid with default values: ri = 1e-06 rf = 100 npts = 1001
   R(n,l,m,s) 0 0 0 0
Expanding Ylm (angular function) according to Gamess using cartesian gaussians
    Gaussian exponent = 0.125346
              contraction=0.055741 nomralized contraction = 0.0296669
    Gaussian exponent = 0.268022
              contraction=0.304848 nomralized contraction = 0.286897
    Gaussian exponent = 0.573098
              contraction=0.453752 nomralized contraction = 0.755101
    Gaussian exponent = 1.22543
              contraction=0.295926 nomralized contraction = 0.870791
    Gaussian exponent = 2.62028
              contraction=0.019567 nomralized contraction = 0.101812
    Gaussian exponent = 5.60282
              contraction=-0.128627 nomralized contraction = -1.18345
    Gaussian exponent = 11.9802
              contraction=0.012024 nomralized contraction = 0.19562
    Gaussian exponent = 25.6168
              contraction=0.000407 nomralized contraction = 0.0117085
    Gaussian exponent = 54.7752
              contraction=-7.59999e-05 nomralized contraction = -0.00386604
Adding 1 cartesian gaussian orbitals for l= 0
   R(n,l,m,s) 1 0 0 0
Expanding Ylm (angular function) according to Gamess using cartesian gaussians
    Gaussian exponent = 1.68663
              contraction=1 nomralized contraction = 3.73922
	Setting GridManager of 1 radial orbital to false
Adding 1 cartesian gaussian orbitals for l= 0
   R(n,l,m,s) 2 0 0 0
Expanding Ylm (angular function) according to Gamess using cartesian gaussians
    Gaussian exponent = 0.237997
              contraction=1 nomralized contraction = 0.860882
	Setting GridManager of 2 radial orbital to false
Adding 1 cartesian gaussian orbitals for l= 0
   R(n,l,m,s) 3 1 0 0
Expanding Ylm (angular function) according to Gamess using cartesian gaussians
    Gaussian exponent = 0.083598
              contraction=0.044958 nomralized contraction = 0.00589571
    Gaussian exponent = 0.167017
              contraction=0.150175 nomralized contraction = 0.046777
    Gaussian exponent = 0.333673
              contraction=0.255999 nomralized contraction = 0.189397
    Gaussian exponent = 0.666627
              contraction=0.281879 nomralized contraction = 0.495337
    Gaussian exponent = 1.33182
              contraction=0.242835 nomralized contraction = 1.01356
    Gaussian exponent = 2.66076
              contraction=0.161134 nomralized contraction = 1.59746
    Gaussian exponent = 5.31578
              contraction=0.082308 nomralized contraction = 1.93814
    Gaussian exponent = 10.6201
              contraction=0.039899 nomralized contraction = 2.23155
    Gaussian exponent = 21.2173
              contraction=0.004679 nomralized contraction = 0.621585
	Setting GridManager of 3 radial orbital to false
Adding 3 cartesian gaussian orbitals for l= 1
   R(n,l,m,s) 4 1 0 0
Expanding Ylm (angular function) according to Gamess using cartesian gaussians
    Gaussian exponent = 0.184696
              contraction=1 nomralized contraction = 0.353229
	Setting GridManager of 4 radial orbital to false
Adding 3 cartesian gaussian orbitals for l= 1
   R(n,l,m,s) 5 1 0 0
Expanding Ylm (angular function) according to Gamess using cartesian gaussians
    Gaussian exponent = 0.600621
              contraction=1 nomralized contraction = 1.54254
	Setting GridManager of 5 radial orbital to false
Adding 3 cartesian gaussian orbitals for l= 1
   R(n,l,m,s) 6 2 0 0
Expanding Ylm (angular function) according to Gamess using cartesian gaussians
    Gaussian exponent = 0.66934
              contraction=1 nomralized contraction = 1.29244
	Setting GridManager of 6 radial orbital to false
Adding 6 cartesian gaussian orbitals for l= 2
   R(n,l,m,s) 7 2 0 0
Expanding Ylm (angular function) according to Gamess using cartesian gaussians
    Gaussian exponent = 2.40428
              contraction=1 nomralized contraction = 12.113
	Setting GridManager of 7 radial orbital to false
Adding 6 cartesian gaussian orbitals for l= 2
   R(n,l,m,s) 8 3 0 0
Expanding Ylm (angular function) according to Gamess using cartesian gaussians
    Gaussian exponent = 1.4231
              contraction=1 nomralized contraction = 4.36308
	Setting GridManager of 8 radial orbital to false
Adding 10 cartesian gaussian orbitals for l= 3
   Maximu Angular Momentum   = 3
   Number of Radial functors = 9
   Basis size                = 34

<input node="atomicBasisSet"  name="Gaussian-G2"  angular="cartesian"  type="Gaussian"  elementType="H"  normalized="no"/>
  AO BasisSet for H
   Angular momentum expanded in cartesian functions x^lx y^ly z^lz according to Gamess
Using log grid with default values: ri = 1e-06 rf = 100 npts = 1001
   R(n,l,m,s) 0 0 0 0
Expanding Ylm (angular function) according to Gamess using cartesian gaussians
    Gaussian exponent = 8.70089
              contraction=0.0627182 nomralized contraction = 0.802752
    Gaussian exponent = 1.95552
              contraction=0.261959 nomralized contraction = 1.09445
    Gaussian exponent = 0.559044
              contraction=0.75701 nomralized contraction = 1.23652
Adding 1 cartesian gaussian orbitals for l= 0
   R(n,l,m,s) 1 0 0 0
Expanding Ylm (angular function) according to Gamess using cartesian gaussians
    Gaussian exponent = 0.164925
              contraction=1 nomralized contraction = 0.653854
	Setting GridManager of 1 radial orbital to false
Adding 1 cartesian gaussian orbitals for l= 0
   R(n,l,m,s) 2 0 0 0
Expanding Ylm (angular function) according to Gamess using cartesian gaussians
    Gaussian exponent = 0.0320625
              contraction=1 nomralized contraction = 0.191431
	Setting GridManager of 2 radial orbital to false
Adding 1 cartesian gaussian orbitals for l= 0
   R(n,l,m,s) 3 1 0 0
Expanding Ylm (angular function) according to Gamess using cartesian gaussians
    Gaussian exponent = 0.790074
              contraction=1 nomralized contraction = 2.17305
	Setting GridManager of 3 radial orbital to false
Adding 3 cartesian gaussian orbitals for l= 1
   R(n,l,m,s) 4 1 0 0
Expanding Ylm (angular function) according to Gamess using cartesian gaussians
    Gaussian exponent = 0.152351
              contraction=1 nomralized contraction = 0.277679
	Setting GridManager of 4 radial orbital to false
Adding 3 cartesian gaussian orbitals for l= 1
   R(n,l,m,s) 5 2 0 0
Expanding Ylm (angular function) according to Gamess using cartesian gaussians
    Gaussian exponent = 0.883818
              contraction=1 nomralized contraction = 2.10215
	Setting GridManager of 5 radial orbital to false
Adding 6 cartesian gaussian orbitals for l= 2
   Maximu Angular Momentum   = 2
   Number of Radial functors = 6
   Basis size                = 15

Built BasisSetBuilder "LCAOBSet" of type molecularorbital
Creating SPOSet in SlaterDetBuilder::put(xmlNodePtr cur).
spo_name = spo-up
 Building SPOset spo-up with LCAOBSet basis set.
Creating LCOrbitalSet with the input coefficients
SPO coefficients are applied by a single dgemm (BLAS3)
Creating SPOSet in SlaterDetBuilder::put(xmlNodePtr cur).
spo_name = spo-dn
 Building SPOset spo-dn with LCAOBSet basis set.
Creating LCOrbitalSet with the input coefficients
SPO coefficients are applied by a single dgemm (BLAS3)
Using Bryan's algorithm for MultiSlaterDeterminant expansion. 
Creating base determinant (up) for MSD expansion. 
Creating base determinant (down) for MSD expansion. 
Found determinant list. 
Reading CSFs.
Found 875 terms in the MSD expansion.
Norm of ci vector (sum of ci^2): 0.984456
Norm of qchem ci vector (sum of qchem_ci^2): 0.984456
Found 152 unique up determinants.
Found 152 unique down determinants.
Number of terms in pairs array: 86
Number of terms in pairs array: 86
CI coefficients are optimizable. 
  FermionWF=MultiSlaterDeterminantFast
  BsplineJastrowBuilder adds a functor with cusp = -0.25
 size = 10 parameters 
 cusp = -0.25
 rcut = 10
Parameter     Name      Value
uu_0 0 1 1  ON 0
uu_1 0 1 1  ON 1
uu_2 0 1 1  ON 2
uu_3 0 1 1  ON 3
uu_4 0 1 1  ON 4
uu_5 0 1 1  ON 5
uu_6 0 1 1  ON 6
uu_7 0 1 1  ON 7
uu_8 0 1 1  ON 8
uu_9 0 1 1  ON 9
  BsplineJastrowBuilder adds a functor with cusp = -0.5
 size = 10 parameters 
 cusp = -0.5
 rcut = 10
Parameter     Name      Value
ud_0 0 1 1  ON 0
ud_1 0 1 1  ON 1
ud_2 0 1 1  ON 2
ud_3 0 1 1  ON 3
ud_4 0 1 1  ON 4
ud_5 0 1 1  ON 5
ud_6 0 1 1  ON 6
ud_7 0 1 1  ON 7
ud_8 0 1 1  ON 8
ud_9 0 1 1  ON 9

  Using BsplineBuilder for one-body jastrow with B-spline functions
  ... ParticleSet::addTable Reuse Table #1 ion0_e
  ... ParticleSet::addTable Reuse Table #1 ion0_e
 size = 10 parameters 
 cusp = 0
 rcut = 10
Parameter     Name      Value
eO_0 0 1 1  ON 0
eO_1 0 1 1  ON 1
eO_2 0 1 1  ON 2
eO_3 0 1 1  ON 3
eO_4 0 1 1  ON 4
eO_5 0 1 1  ON 5
eO_6 0 1 1  ON 6
eO_7 0 1 1  ON 7
eO_8 0 1 1  ON 8
eO_9 0 1 1  ON 9
 size = 10 parameters 
 cusp = 0
 rcut = 10
Parameter     Name      Value
eH_0 0 1 1  ON 0
eH_1 0 1 1  ON 1
eH_2 0 1 1  ON 2
eH_3 0 1 1  ON 3
eH_4 0 1 1  ON 4
eH_5 0 1 1  ON 5
eH_6 0 1 1  ON 6
eH_7 0 1 1  ON 7
eH_8 0 1 1  ON 8
eH_9 0 1 1  ON 9
  ... ParticleSet::addTable Reuse Table #1 ion0_e
Expected 26 parameters, but found 0 in PolynomialFunctor3D.
Parameter     Name      Value
uuO_0 0 1 1  ON 0
uuO_1 0 1 1  ON 1
uuO_2 0 1 1  ON 2
uuO_3 0 1 1  ON 3
uuO_4 0 1 1  ON 4
uuO_5 0 1 1  ON 5
uuO_6 0 1 1  ON 6
uuO_7 0 1 1  ON 7
uuO_8 0 1 1  ON 8
uuO_9 0 1 1  ON 9
uuO_10 0 1 1  ON 10
uuO_11 0 1 1  ON 11
uuO_12 0 1 1  ON 12
uuO_13 0 1 1  ON 13
uuO_14 0 1 1  ON 14
uuO_15 0 1 1  ON 15
uuO_16 0 1 1  ON 16
uuO_17 0 1 1  ON 17
uuO_18 0 1 1  ON 18
uuO_19 0 1 1  ON 19
uuO_20 0 1 1  ON 20
uuO_21 0 1 1  ON 21
uuO_22 0 1 1  ON 22
uuO_23 0 1 1  ON 23
uuO_24 0 1 1  ON 24
uuO_25 0 1 1  ON 25
Expected 26 parameters, but found 0 in PolynomialFunctor3D.
Parameter     Name      Value
udO_0 0 1 1  ON 0
udO_1 0 1 1  ON 1
udO_2 0 1 1  ON 2
udO_3 0 1 1  ON 3
udO_4 0 1 1  ON 4
udO_5 0 1 1  ON 5
udO_6 0 1 1  ON 6
udO_7 0 1 1  ON 7
udO_8 0 1 1  ON 8
udO_9 0 1 1  ON 9
udO_10 0 1 1  ON 10
udO_11 0 1 1  ON 11
udO_12 0 1 1  ON 12
udO_13 0 1 1  ON 13
udO_14 0 1 1  ON 14
udO_15 0 1 1  ON 15
udO_16 0 1 1  ON 16
udO_17 0 1 1  ON 17
udO_18 0 1 1  ON 18
udO_19 0 1 1  ON 19
udO_20 0 1 1  ON 20
udO_21 0 1 1  ON 21
udO_22 0 1 1  ON 22
udO_23 0 1 1  ON 23
udO_24 0 1 1  ON 24
udO_25 0 1 1  ON 25
Expected 26 parameters, but found 0 in PolynomialFunctor3D.
Parameter     Name      Value
uuH_0 0 1 1  ON 0
uuH_1 0 1 1  ON 1
uuH_2 0 1 1  ON 2
uuH_3 0 1 1  ON 3
uuH_4 0 1 1  ON 4
uuH_5 0 1 1  ON 5
uuH_6 0 1 1  ON 6
uuH_7 0 1 1  ON 7
uuH_8 0 1 1  ON 8
uuH_9 0 1 1  ON 9
uuH_10 0 1 1  ON 10
uuH_11 0 1 1  ON 11
uuH_12 0 1 1  ON 12
uuH_13 0 1 1  ON 13
uuH_14 0 1 1  ON 14
uuH_15 0 1 1  ON 15
uuH_16 0 1 1  ON 16
uuH_17 0 1 1  ON 17
uuH_18 0 1 1  ON 18
uuH_19 0 1 1  ON 19
uuH_20 0 1 1  ON 20
uuH_21 0 1 1  ON 21
uuH_22 0 1 1  ON 22
uuH_23 0 1 1  ON 23
uuH_24 0 1 1  ON 24
uuH_25 0 1 1  ON 25
Expected 26 parameters, but found 0 in PolynomialFunctor3D.
Parameter     Name      Value
udH_0 0 1 1  ON 0
udH_1 0 1 1  ON 1
udH_2 0 1 1  ON 2
udH_3 0 1 1  ON 3
udH_4 0 1 1  ON 4
udH_5 0 1 1  ON 5
udH_6 0 1 1  ON 6
udH_7 0 1 1  ON 7
udH_8 0 1 1  ON 8
udH_9 0 1 1  ON 9
udH_10 0 1 1  ON 10
udH_11 0 1 1  ON 11
udH_12 0 1 1  ON 12
udH_13 0 1 1  ON 13
udH_14 0 1 1  ON 14
udH_15 0 1 1  ON 15
udH_16 0 1 1  ON 16
udH_17 0 1 1  ON 17
udH_18 0 1 1  ON 18
udH_19 0 1 1  ON 19
udH_20 0 1 1  ON 20
udH_21 0 1 1  ON 21
udH_22 0 1 1  ON 22
udH_23 0 1 1  ON 23
udH_24 0 1 1  ON 24
udH_25 0 1 1  ON 25
  QMCHamiltonian::addOperator Kinetic to H, physical Hamiltonian 
  ... ParticleSet::addTable Reuse Table #0 e_e
  QMCHamiltonian::addOperator ElecElec to H, physical Hamiltonian 
QMCHamiltonian::addOperatorType added type coulomb named ElecElec

  ECPotential builder for pseudopotential 

  Adding pseudopotential for O
   Linear grid  ri=0 rf=10 npts = 10001
    ECPComponentBuilder::buildSemiLocalAndLocal 
    Assuming Hartree unit
   Number of angular momentum channels 2
   Maximum angular momentum channel 1
   Creating a Linear Grid Rmax=1.30534
  Using global grid with delta = 0.001
   Making L=1 a local potential with a radial cutoff of 9.998
  NonLocalECPComponent::resize_warrays 
    Non-local pseudopotential parameters
    Maximum angular mementum = 0
    Number of non-local channels = 1
       l(0)=0
    Cutoff radius = 1.306
    Spherical grids and weights: 
                        1                 0                 0       0.08333333333
                       -1   1.224646799e-16                 0       0.08333333333
             0.4472135955       0.894427191                 0       0.08333333333
            -0.4472135955      0.7236067977      0.5257311121       0.08333333333
             0.4472135955      0.2763932023      0.8506508084       0.08333333333
            -0.4472135955     -0.2763932023      0.8506508084       0.08333333333
             0.4472135955     -0.7236067977      0.5257311121       0.08333333333
            -0.4472135955      -0.894427191   1.095357397e-16       0.08333333333
             0.4472135955     -0.7236067977     -0.5257311121       0.08333333333
            -0.4472135955     -0.2763932023     -0.8506508084       0.08333333333
             0.4472135955      0.2763932023     -0.8506508084       0.08333333333
            -0.4472135955      0.7236067977     -0.5257311121       0.08333333333
    Maximum cutoff radius 1.306

  Adding pseudopotential for H
   Linear grid  ri=0 rf=10 npts = 10001
    ECPComponentBuilder::buildSemiLocalAndLocal 
    Assuming Hartree unit
    Only one vps is found. Set the local component=0
   Number of angular momentum channels 1
   Maximum angular momentum channel 0
   Creating a Linear Grid Rmax=1.16639
  Using global grid with delta = 0.001
   Making L=0 a local potential with a radial cutoff of 9.998
  ... ParticleSet::addTable Reuse Table #1 ion0_e
  QMCHamiltonian::addOperator LocalECP to H, physical Hamiltonian 
  ... ParticleSet::addTable Reuse Table #1 ion0_e
  ... ParticleSet::addTable Reuse Table #1 ion0_e

  Using NonLocalECP potential 
    Maximum grid on a sphere for NonLocalECPotential: 12
  QMCHamiltonian::addOperator NonLocalECP to H, physical Hamiltonian 
QMCHamiltonian::addOperatorType added type pseudo named ELEMENT-ECP
  Distance table for AA: source/target = ion0
    PBC=open Orthorhombic=NA
 using Cartesian coordinates with 
  ... ParticleSet::addTable Create Table #0 ion0_ion0
  QMCHamiltonian::addOperator IonIon to H, physical Hamiltonian 
QMCHamiltonian::addOperatorType added type coulomb named IonIon

  QMCHamiltonian::add2WalkerProperty added
    5 to P::PropertyList 
    0 to P::Collectables 
    starting Index of the observables in P::PropertyList = 9
  Hamiltonian disables VirtualMoves
<init source="ion0" target="e">
  ... ParticleSet::addTable Reuse Table #0 ion0_ion0
</init>
ParticleSetPool::randomize 
=========================================================
 Summary of QMC systems 
=========================================================
ParticleSetPool has: 

  ParticleSet e : 0 4 8 

    8

    u -2.8052857954e-01 -1.6530020944e-01  6.4646853879e-01
    u -3.2732086618e-01  1.0301912965e-01  6.3733046712e-01
    u -3.9039090179e-01  6.0814587682e-01 -4.1177070498e-02
    u -4.2543581099e-02 -1.5207946709e+00  3.9090666919e-01
    d  5.4718813113e-01 -3.4457157016e-01  3.2526542549e-01
    d  1.6165072294e-02 -4.4671676229e-01 -5.6931962864e-01
    d  6.9281476374e-01 -2.9328615937e-03 -2.0962136413e-01
    d -4.9833262674e-01  1.0245886721e+00  1.4404045328e+00

  ParticleSet ion0 : 0 1 3 

    3

    O  0.0000000000e+00  0.0000000000e+00  0.0000000000e+00
    H -0.0000000000e+00 -1.4308249289e+00  1.1078707576e+00
    H  0.0000000000e+00  1.4308249289e+00  1.1078707576e+00

  Hamiltonian h0
  Kinetic         Kinetic energy
  ElecElec        CoulombAA source/target e

  LocalECP        LocalECPotential: ion0
  NonLocalECP     NonLocalECPotential: ion0
  IonIon          CoulombAA source/target ion0

Loop execution max-interations = 10

=========================================================
  Start QMCFixedSampleLinearOptimize
  File Root jopt-h2o.s000 append = no 
=========================================================
  Skip QMCDriver::putQMCInfo 
  Resetting Properties of the walkers 1 x 14
  Adding 1 walkers to 0 existing sets
  Total number of walkers: 3.2000000000e+02
  Total weight: 3.2000000000e+02

=========================================================
  Start VMCSingleOMP
  File Root jopt-h2o.s000 append = no 
=========================================================
  Using the current 1 walkers.
  Total number of walkers: 3.2000000000e+02
  Total weight: 3.2000000000e+02
  Resetting Properties of the walkers 1 x 14

<vmc function="put">
  qmc_counter=0  my_counter=0
  time step      = 5.0000000000e-01
  blocks         = 100
  steps          = 2
  substeps       = 20
  current        = 0
  target samples = 5.1200000000e+04
  walkers/mpi    = 1

  stepsbetweensamples = 1
<parameter name="blocks" condition="int">100</parameter>
<parameter name="check_properties" condition="int">100</parameter>
<parameter name="checkproperties" condition="int">100</parameter>
<parameter name="current" condition="int">0</parameter>
<parameter name="dmcwalkersperthread" condition="real">1.6000000000e+02</parameter>
<parameter name="maxcpusecs" condition="real">3.6000000000e+05</parameter>
<parameter name="record_configs" condition="int">0</parameter>
<parameter name="record_walkers" condition="int">1</parameter>
<parameter name="recordconfigs" condition="int">0</parameter>
<parameter name="recordwalkers" condition="int">1</parameter>
<parameter name="rewind" condition="int">0</parameter>
<parameter name="samples" condition="real">5.1200000000e+04</parameter>
<parameter name="samplesperthread" condition="real">1.6000000000e+02</parameter>
<parameter name="steps" condition="int">2</parameter>
<parameter name="stepsbetweensamples" condition="int">1</parameter>
<parameter name="store_configs" condition="int">0</parameter>
<parameter name="storeconfigs" condition="int">0</parameter>
<parameter name="sub_steps" condition="int">20</parameter>
<parameter name="substeps" condition="int">20</parameter>
<parameter name="tau" condition="au">5.0000000000e-01</parameter>
<parameter name="time_step" condition="au">5.0000000000e-01</parameter>
<parameter name="timestep" condition="au">5.0000000000e-01</parameter>
<parameter name="use_drift" condition="string">yes</parameter>
<parameter name="usedrift" condition="string">yes</parameter>
<parameter name="walkers" condition="int">1</parameter>
<parameter name="warmup_steps" condition="int">25</parameter>
<parameter name="warmupsteps" condition="int">25</parameter>
  DumpConfig==false Nothing (configurations, state) will be saved.
  Walker Samples are dumped every 1 steps.
</vmc>
 Using QMCCostFunctionOMP::QMCCostFunctionOMP
<optimization-report>
<vmc stage="main" blocks="100">
  Initial partition of walkers 0 1 
  PbyP moves with drift, using VMCUpdatePbyPWithDriftFast

  Total Sample Size   =51200
  Walker distribution on root = 0 1 
  Anonymous Buffer size per walker 7269
MEMORY increase 0 MB VMCSingleOMP::resetRun
====================================================
  SimpleFixedNodeBranch::finalize after a VMC block
    QMC counter        = 0
    time step          = 0.5
    reference energy   = -17.0924
    reference variance = 1.05421
====================================================
  Execution time = 4.1118549840e+00
</vmc>
<opt stage="setup">
  <log>
   Reading configurations from h5FileRoot jopt-h2o.s000
  QMCCostFunctionOMP is created with 1
   Loading configuration from MCWalkerConfiguration::SampleStack 
    number of walkers before load 1
  Using Nonlocal PP in Opt: NonLocalECP
    number of walkers after load: 160 
Using buffers for temporary storage in QMCCostFunction.

Memory usage: 
Linear method (approx matrix usage: 4*N^2): 4.5481280000e+00 MB
Deriv,HDerivRecord:      1.4476800000e+00 MB
Buffer memory cost:     MB/walker       MB/total 
Orbitals only:           2.1120000000e-03      3.3792000000e-01
Orbitals + dervs:        1.0560000000e-02      1.6896000000e+00
Inverse:                 2.5600000000e-04      4.0960000000e-02
Determinants:            4.1344000000e-02      6.6150400000e+00
  VMC Eavg = -1.7119473070e+01
  VMC Evar = 1.1539182936e+00
  Total weights = 5.1200000000e+04
  Execution time = 5.7517495401e-01
  </log>
</opt>
<opt stage="main" walkers="51200">
  <log>
Iteration: 1/1
od_largest 9.3725865734e+07
  stabilityBase -6.0000000000e+00
  stabilizerScale 2.0000000000e+00
  Using XS:-6.0000000000e+00 0 0
ERROR CostFunction-> Number of Effective Walkers is too small 1.7369084617e+00 NumWalkersEff/NumSamples 3.3923993392e-05
ERROR CostFunction-> Number of Effective Walkers is too small 1.0005639575e+00 NumWalkersEff/NumSamples 1.9542264795e-05
ERROR CostFunction-> Number of Effective Walkers is too small 1.0000009903e+00 NumWalkersEff/NumSamples 1.9531269342e-05
ERROR CostFunction-> Number of Effective Walkers is too small 1.0000000016e+00 NumWalkersEff/NumSamples 1.9531250031e-05
ERROR CostFunction-> Number of Effective Walkers is too small 1.0000000000e+00 NumWalkersEff/NumSamples 1.9531250000e-05
ERROR CostFunction-> Number of Effective Walkers is too small 1.0000000000e+00 NumWalkersEff/NumSamples 1.9531250000e-05
  Failed Step. Largest LM parameter change:6.1641147229e+01
ERROR   Using XS:-4.0000000000e+00 1 0
ERROR CostFunction-> Number of Effective Walkers is too small 1.7357361256e+00 NumWalkersEff/NumSamples 3.3901096202e-05
ERROR CostFunction-> Number of Effective Walkers is too small 1.0005613093e+00 NumWalkersEff/NumSamples 1.9542213072e-05
ERROR CostFunction-> Number of Effective Walkers is too small 1.0000009807e+00 NumWalkersEff/NumSamples 1.9531269154e-05
ERROR CostFunction-> Number of Effective Walkers is too small 1.0000000016e+00 NumWalkersEff/NumSamples 1.9531250030e-05
ERROR CostFunction-> Number of Effective Walkers is too small 1.0000000000e+00 NumWalkersEff/NumSamples 1.9531250000e-05
ERROR CostFunction-> Number of Effective Walkers is too small 1.0000000000e+00 NumWalkersEff/NumSamples 1.9531250000e-05
  Failed Step. Largest LM parameter change:6.1687678803e+01
ERROR   Using XS:-2.0000000000e+00 2 0
ERROR CostFunction-> Number of Effective Walkers is too small 1.7265049540e+00 NumWalkersEff/NumSamples 3.3720799884e-05
ERROR CostFunction-> Number of Effective Walkers is too small 1.0005405460e+00 NumWalkersEff/NumSamples 1.9541807538e-05
ERROR CostFunction-> Number of Effective Walkers is too small 1.0000009068e+00 NumWalkersEff/NumSamples 1.9531267712e-05
ERROR CostFunction-> Number of Effective Walkers is too small 1.0000000014e+00 NumWalkersEff/NumSamples 1.9531250027e-05
ERROR CostFunction-> Number of Effective Walkers is too small 1.0000000000e+00 NumWalkersEff/NumSamples 1.9531250000e-05
ERROR CostFunction-> Number of Effective Walkers is too small 1.0000000000e+00 NumWalkersEff/NumSamples 1.9531250000e-05
  Failed Step. Largest LM parameter change:6.2060161405e+01
ERROR   Using XS:0.0000000000e+00 3 0
ERROR CostFunction-> Number of Effective Walkers is too small 1.0002308664e+00 NumWalkersEff/NumSamples 1.9535759109e-05
ERROR CostFunction-> Number of Effective Walkers is too small 3.7745500854e+00 NumWalkersEff/NumSamples 7.3721681356e-05
ERROR CostFunction-> Number of Effective Walkers is too small 1.0000000386e+00 NumWalkersEff/NumSamples 1.9531250754e-05
ERROR CostFunction-> Number of Effective Walkers is too small 1.0000000000e+00 NumWalkersEff/NumSamples 1.9531250000e-05
ERROR CostFunction-> Number of Effective Walkers is too small 1.0000000000e+00 NumWalkersEff/NumSamples 1.9531250000e-05
ERROR CostFunction-> Number of Effective Walkers is too small 1.0000000000e+00 NumWalkersEff/NumSamples 1.9531250000e-05
  Failed Step. Largest LM parameter change:1.3036246788e+02
ERROR   Using XS:2.0000000000e+00 4 0
ERROR CostFunction-> Number of Effective Walkers is too small 4.9298608766e+00 NumWalkersEff/NumSamples 9.6286345246e-05
ERROR CostFunction-> Number of Effective Walkers is too small 1.0000063671e+00 NumWalkersEff/NumSamples 1.9531374358e-05
ERROR CostFunction-> Number of Effective Walkers is too small 1.0000000007e+00 NumWalkersEff/NumSamples 1.9531250014e-05
ERROR CostFunction-> Number of Effective Walkers is too small 1.0000000000e+00 NumWalkersEff/NumSamples 1.9531250000e-05
ERROR CostFunction-> Number of Effective Walkers is too small 1.0000000000e+00 NumWalkersEff/NumSamples 1.9531250000e-05
ERROR CostFunction-> Number of Effective Walkers is too small 1.0000000000e+00 NumWalkersEff/NumSamples 1.9531250000e-05
  Failed Step. Largest LM parameter change:1.1412827279e+02
ERROR   Using XS:4.0000000000e+00 5 0
  Good Step. Largest LM parameter change:4.2302645905e-01
 OldCost: -1.6205803502e+01 NewCost: -1.6347614517e+01 Delta Cost:-1.4181101444e-01
      Current ene:     -1.7226841990e+01
      Current var:     3.5770747890e-01
      Current ene_urw:     -1.7199716952e+01
      Current var_urw: 4.3260302126e-01
Setting new Parameters
ERROR   Execution time = 1.6373165745e+01
  </log>
  <optVariables href="jopt-h2o.s000.opt.xml">
CSFcoeff_1 -2.4364516417e-02 3 1  ON 0
CSFcoeff_2 2.9847517087e-02 3 1  ON 1
CSFcoeff_3 -2.4252921763e-02 3 1  ON 2
CSFcoeff_4 -2.2589579698e-02 3 1  ON 3
CSFcoeff_5 -1.9486524855e-02 3 1  ON 4
CSFcoeff_6 2.1909706603e-02 3 1  ON 5
CSFcoeff_7 -1.8542059568e-02 3 1  ON 6
CSFcoeff_8 1.9706580208e-02 3 1  ON 7
CSFcoeff_9 1.6915816028e-02 3 1  ON 8
CSFcoeff_10 -1.8761229972e-02 3 1  ON 9
CSFcoeff_11 -1.7237356623e-02 3 1  ON 10
CSFcoeff_12 -1.7541885230e-02 3 1  ON 11
CSFcoeff_13 -1.6785859912e-02 3 1  ON 12
CSFcoeff_14 -1.7898274990e-02 3 1  ON 13
CSFcoeff_15 1.3736592110e-02 3 1  ON 14
CSFcoeff_16 -1.8518521254e-02 3 1  ON 15
CSFcoeff_17 -1.7407805680e-02 3 1  ON 16
CSFcoeff_18 -1.4720156351e-02 3 1  ON 17
CSFcoeff_19 1.4970219352e-02 3 1  ON 18
CSFcoeff_20 1.4955874152e-02 3 1  ON 19
CSFcoeff_21 1.4938641342e-02 3 1  ON 20
CSFcoeff_22 -1.5457496198e-02 3 1  ON 21
CSFcoeff_23 -1.6583527507e-02 3 1  ON 22
CSFcoeff_24 1.4920861171e-02 3 1  ON 23
CSFcoeff_25 1.5550223962e-02 3 1  ON 24
CSFcoeff_26 -1.5685154641e-02 3 1  ON 25
CSFcoeff_27 1.5918953637e-02 3 1  ON 26
CSFcoeff_28 1.5700297053e-02 3 1  ON 27
CSFcoeff_29 -9.9911789996e-03 3 1  ON 28
CSFcoeff_30 1.4859823155e-02 3 1  ON 29
CSFcoeff_31 1.4951995355e-02 3 1  ON 30
CSFcoeff_32 -1.1959470398e-02 3 1  ON 31
CSFcoeff_33 -1.3376599571e-02 3 1  ON 32
CSFcoeff_34 1.0316682835e-02 3 1  ON 33
CSFcoeff_35 1.2989427453e-02 3 1  ON 34
CSFcoeff_36 -1.4390956207e-02 3 1  ON 35
CSFcoeff_37 -1.2855176348e-02 3 1  ON 36
CSFcoeff_38 -1.0484896762e-02 3 1  ON 37
CSFcoeff_39 1.2527518527e-02 3 1  ON 38
CSFcoeff_40 1.5270236998e-02 3 1  ON 39
CSFcoeff_41 -1.0200979423e-02 3 1  ON 40
CSFcoeff_42 -9.9084165905e-03 3 1  ON 41
CSFcoeff_43 1.2249199972e-02 3 1  ON 42
CSFcoeff_44 1.0377708331e-02 3 1  ON 43
CSFcoeff_45 1.3754885710e-02 3 1  ON 44
CSFcoeff_46 -8.9189658523e-03 3 1  ON 45
CSFcoeff_47 1.1048733496e-02 3 1  ON 46
CSFcoeff_48 -1.0879498821e-02 3 1  ON 47
CSFcoeff_49 1.2229429144e-02 3 1  ON 48
CSFcoeff_50 -1.2760365231e-02 3 1  ON 49
CSFcoeff_51 1.1534488562e-02 3 1  ON 50
CSFcoeff_52 -1.1824380129e-02 3 1  ON 51
CSFcoeff_53 1.2704693023e-02 3 1  ON 52
CSFcoeff_54 -9.3359978416e-03 3 1  ON 53
CSFcoeff_55 1.1089486407e-02 3 1  ON 54
CSFcoeff_56 1.0346668367e-02 3 1  ON 55
CSFcoeff_57 -1.1797287765e-02 3 1  ON 56
CSFcoeff_58 -1.1260144419e-02 3 1  ON 57
CSFcoeff_59 9.5251247692e-03 3 1  ON 58
CSFcoeff_60 1.4167922564e-02 3 1  ON 59
CSFcoeff_61 -1.2900346985e-02 3 1  ON 60
CSFcoeff_62 -9.0494220390e-03 3 1  ON 61
CSFcoeff_63 1.0222498059e-02 3 1  ON 62
CSFcoeff_64 -1.1026016153e-02 3 1  ON 63
CSFcoeff_65 1.1453081738e-02 3 1  ON 64
CSFcoeff_66 1.0720811201e-02 3 1  ON 65
CSFcoeff_67 -9.9743249529e-03 3 1  ON 66
CSFcoeff_68 1.0864338330e-02 3 1  ON 67
CSFcoeff_69 -1.0394625597e-02 3 1  ON 68
CSFcoeff_70 -8.8509758388e-03 3 1  ON 69
CSFcoeff_71 -1.0484639218e-02 3 1  ON 70
CSFcoeff_72 8.5446153076e-03 3 1  ON 71
CSFcoeff_73 -1.0335816321e-02 3 1  ON 72
CSFcoeff_74 -1.2147725510e-02 3 1  ON 73
CSFcoeff_75 -8.3360430826e-03 3 1  ON 74
CSFcoeff_76 -9.5971036171e-03 3 1  ON 75
CSFcoeff_77 -1.0110467715e-02 3 1  ON 76
CSFcoeff_78 -1.0572385309e-02 3 1  ON 77
CSFcoeff_79 1.0464158335e-02 3 1  ON 78
CSFcoeff_80 9.1591117760e-03 3 1  ON 79
CSFcoeff_81 9.0245352713e-03 3 1  ON 80
CSFcoeff_82 8.3478746629e-03 3 1  ON 81
CSFcoeff_83 -8.8883835618e-03 3 1  ON 82
CSFcoeff_84 -9.2939090310e-03 3 1  ON 83
CSFcoeff_85 7.8136288751e-03 3 1  ON 84
CSFcoeff_86 -9.5475981628e-03 3 1  ON 85
CSFcoeff_87 9.4949224494e-03 3 1  ON 86
CSFcoeff_88 -1.0825669357e-02 3 1  ON 87
CSFcoeff_89 -9.7283122399e-03 3 1  ON 88
CSFcoeff_90 7.4256601244e-03 3 1  ON 89
CSFcoeff_91 -1.0328088021e-02 3 1  ON 90
CSFcoeff_92 1.0388806836e-02 3 1  ON 91
CSFcoeff_93 5.9726141529e-03 3 1  ON 92
CSFcoeff_94 9.3739568496e-03 3 1  ON 93
CSFcoeff_95 9.0036706166e-03 3 1  ON 94
CSFcoeff_96 8.2759600963e-03 3 1  ON 95
CSFcoeff_97 9.7983930601e-03 3 1  ON 96
CSFcoeff_98 9.4769210821e-03 3 1  ON 97
CSFcoeff_99 -9.7398335725e-03 3 1  ON 98
CSFcoeff_100 1.2743343615e-02 3 1  ON 99
CSFcoeff_101 -9.1182259369e-03 3 1  ON 100
CSFcoeff_102 -9.5573228332e-03 3 1  ON 101
CSFcoeff_103 7.5523715800e-03 3 1  ON 102
CSFcoeff_104 9.0591160323e-03 3 1  ON 103
CSFcoeff_105 9.2006783552e-03 3 1  ON 104
CSFcoeff_106 1.0494361733e-02 3 1  ON 105
CSFcoeff_107 -8.5025485893e-03 3 1  ON 106
CSFcoeff_108 8.7399872643e-03 3 1  ON 107
CSFcoeff_109 -7.5028351622e-03 3 1  ON 108
CSFcoeff_110 8.5408450669e-03 3 1  ON 109
CSFcoeff_111 -7.2068954356e-03 3 1  ON 110
CSFcoeff_112 -6.9490381244e-03 3 1  ON 111
CSFcoeff_113 -9.1614503976e-03 3 1  ON 112
CSFcoeff_114 -7.7561952717e-03 3 1  ON 113
CSFcoeff_115 7.8756899903e-03 3 1  ON 114
CSFcoeff_116 -9.1419188421e-03 3 1  ON 115
CSFcoeff_117 -9.3466038917e-03 3 1  ON 116
CSFcoeff_118 -7.3165065013e-03 3 1  ON 117
CSFcoeff_119 5.9721539139e-03 3 1  ON 118
CSFcoeff_120 -8.6054470240e-03 3 1  ON 119
CSFcoeff_121 -9.3326728572e-03 3 1  ON 120
CSFcoeff_122 9.0497624982e-03 3 1  ON 121
CSFcoeff_123 8.8186140128e-03 3 1  ON 122
CSFcoeff_124 8.4022479779e-03 3 1  ON 123
CSFcoeff_125 -6.4465673479e-03 3 1  ON 124
CSFcoeff_126 7.5787934461e-03 3 1  ON 125
CSFcoeff_127 7.5017784317e-03 3 1  ON 126
CSFcoeff_128 -9.3885486923e-03 3 1  ON 127
CSFcoeff_129 -7.3659542916e-03 3 1  ON 128
CSFcoeff_130 -7.8828598419e-03 3 1  ON 129
CSFcoeff_131 -7.6857358555e-03 3 1  ON 130
CSFcoeff_132 -9.1390781300e-03 3 1  ON 131
CSFcoeff_133 -8.7506476191e-03 3 1  ON 132
CSFcoeff_134 -1.0672630177e-02 3 1  ON 133
CSFcoeff_135 -6.7587604546e-03 3 1  ON 134
CSFcoeff_136 -7.6303487861e-03 3 1  ON 135
CSFcoeff_137 -7.2869556572e-03 3 1  ON 136
CSFcoeff_138 8.7882034787e-03 3 1  ON 137
CSFcoeff_139 -7.4951258388e-03 3 1  ON 138
CSFcoeff_140 6.6797930301e-03 3 1  ON 139
CSFcoeff_141 6.3908837043e-03 3 1  ON 140
CSFcoeff_142 -9.2487754825e-03 3 1  ON 141
CSFcoeff_143 7.8898587860e-03 3 1  ON 142
CSFcoeff_144 -5.1848421217e-03 3 1  ON 143
CSFcoeff_145 -7.5180775744e-03 3 1  ON 144
CSFcoeff_146 -8.1667193873e-03 3 1  ON 145
CSFcoeff_147 5.5546220231e-03 3 1  ON 146
CSFcoeff_148 -8.2389683479e-03 3 1  ON 147
CSFcoeff_149 7.1793298463e-03 3 1  ON 148
CSFcoeff_150 7.9147883844e-03 3 1  ON 149
CSFcoeff_151 7.7169769600e-03 3 1  ON 150
CSFcoeff_152 6.4746591710e-03 3 1  ON 151
CSFcoeff_153 -6.9352759933e-03 3 1  ON 152
CSFcoeff_154 -7.5753489902e-03 3 1  ON 153
CSFcoeff_155 -7.3678189047e-03 3 1  ON 154
CSFcoeff_156 5.1204624529e-03 3 1  ON 155
CSFcoeff_157 -6.4921816911e-03 3 1  ON 156
CSFcoeff_158 6.8621764001e-03 3 1  ON 157
CSFcoeff_159 5.5519829788e-03 3 1  ON 158
CSFcoeff_160 5.9628632936e-03 3 1  ON 159
CSFcoeff_161 5.3536770901e-03 3 1  ON 160
CSFcoeff_162 6.9831170138e-03 3 1  ON 161
CSFcoeff_163 6.9558255594e-03 3 1  ON 162
CSFcoeff_164 7.1949421779e-03 3 1  ON 163
CSFcoeff_165 -7.2064652754e-03 3 1  ON 164
CSFcoeff_166 6.7313566869e-03 3 1  ON 165
CSFcoeff_167 7.4420466599e-03 3 1  ON 166
CSFcoeff_168 6.9654114979e-03 3 1  ON 167
CSFcoeff_169 -7.9581021428e-03 3 1  ON 168
CSFcoeff_170 -5.0492583326e-03 3 1  ON 169
CSFcoeff_171 -7.0560479014e-03 3 1  ON 170
CSFcoeff_172 6.4667281352e-03 3 1  ON 171
CSFcoeff_173 6.3538897918e-03 3 1  ON 172
CSFcoeff_174 -6.1127733607e-03 3 1  ON 173
CSFcoeff_175 -4.9300240875e-03 3 1  ON 174
CSFcoeff_176 5.2020953415e-03 3 1  ON 175
CSFcoeff_177 6.5601906277e-03 3 1  ON 176
CSFcoeff_178 5.2236241813e-03 3 1  ON 177
CSFcoeff_179 -6.6409237566e-03 3 1  ON 178
CSFcoeff_180 -6.9319233537e-03 3 1  ON 179
CSFcoeff_181 6.6044744296e-03 3 1  ON 180
CSFcoeff_182 -4.7175755319e-03 3 1  ON 181
CSFcoeff_183 6.9211093019e-03 3 1  ON 182
CSFcoeff_184 -6.3306410244e-03 3 1  ON 183
CSFcoeff_185 7.8759586895e-03 3 1  ON 184
CSFcoeff_186 6.5838552226e-03 3 1  ON 185
CSFcoeff_187 -5.9768231040e-03 3 1  ON 186
CSFcoeff_188 5.8500179643e-03 3 1  ON 187
CSFcoeff_189 -6.7015523370e-03 3 1  ON 188
CSFcoeff_190 -6.3704838575e-03 3 1  ON 189
CSFcoeff_191 5.8651795985e-03 3 1  ON 190
CSFcoeff_192 -7.7177048731e-03 3 1  ON 191
CSFcoeff_193 -5.5788097195e-03 3 1  ON 192
CSFcoeff_194 -6.6672853336e-03 3 1  ON 193
CSFcoeff_195 -7.4054146369e-03 3 1  ON 194
CSFcoeff_196 -4.2614530574e-03 3 1  ON 195
CSFcoeff_197 -4.8514771578e-03 3 1  ON 196
CSFcoeff_198 7.3942822523e-03 3 1  ON 197
CSFcoeff_199 4.3175690342e-03 3 1  ON 198
CSFcoeff_200 -6.1751264089e-03 3 1  ON 199
CSFcoeff_201 -6.4959110613e-03 3 1  ON 200
CSFcoeff_202 8.0025517458e-03 3 1  ON 201
CSFcoeff_203 5.3063300819e-03 3 1  ON 202
CSFcoeff_204 -6.6189166478e-03 3 1  ON 203
CSFcoeff_205 7.0493481796e-03 3 1  ON 204
CSFcoeff_206 -6.4393918929e-03 3 1  ON 205
CSFcoeff_207 -6.4286824628e-03 3 1  ON 206
CSFcoeff_208 -5.8799717742e-03 3 1  ON 207
CSFcoeff_209 5.6851324039e-03 3 1  ON 208
CSFcoeff_210 -5.7801133817e-03 3 1  ON 209
CSFcoeff_211 -5.1412751304e-03 3 1  ON 210
CSFcoeff_212 -6.4260651814e-03 3 1  ON 211
CSFcoeff_213 -5.1435980933e-03 3 1  ON 212
CSFcoeff_214 -7.0256900245e-03 3 1  ON 213
CSFcoeff_215 5.9125298021e-03 3 1  ON 214
CSFcoeff_216 -6.1195799516e-03 3 1  ON 215
CSFcoeff_217 -5.7705285239e-03 3 1  ON 216
CSFcoeff_218 -5.9191450727e-03 3 1  ON 217
CSFcoeff_219 -4.4898197921e-03 3 1  ON 218
CSFcoeff_220 6.2113835438e-03 3 1  ON 219
CSFcoeff_221 -3.7098050180e-03 3 1  ON 220
CSFcoeff_222 -7.0001720579e-03 3 1  ON 221
CSFcoeff_223 -4.3840492310e-03 3 1  ON 222
CSFcoeff_224 -5.9955404310e-03 3 1  ON 223
CSFcoeff_225 -6.5015768169e-03 3 1  ON 224
CSFcoeff_226 6.6040736471e-03 3 1  ON 225
CSFcoeff_227 -5.4319350232e-03 3 1  ON 226
CSFcoeff_228 -9.1023864618e-03 3 1  ON 227
CSFcoeff_229 -5.0240402154e-03 3 1  ON 228
CSFcoeff_230 -4.6506633264e-03 3 1  ON 229
CSFcoeff_231 -6.5888682481e-03 3 1  ON 230
CSFcoeff_232 -4.5901257345e-03 3 1  ON 231
CSFcoeff_233 -4.8120334515e-03 3 1  ON 232
uu_0 2.1699387349e-01 1 1  ON 233
uu_1 2.6348652300e-02 1 1  ON 234
uu_2 -8.0147783867e-03 1 1  ON 235
uu_3 -1.5790176510e-02 1 1  ON 236
uu_4 -1.9219557220e-02 1 1  ON 237
uu_5 -2.1176165280e-02 1 1  ON 238
uu_6 -2.7194339356e-02 1 1  ON 239
uu_7 -2.7502731522e-02 1 1  ON 240
uu_8 -2.2361095992e-02 1 1  ON 241
uu_9 -3.0029445780e-02 1 1  ON 242
ud_0 3.0474501674e-01 1 1  ON 243
ud_1 1.9756391427e-02 1 1  ON 244
ud_2 -2.8428242223e-03 1 1  ON 245
ud_3 -2.2326559849e-02 1 1  ON 246
ud_4 -2.6084655599e-02 1 1  ON 247
ud_5 -3.2552823819e-02 1 1  ON 248
ud_6 -3.0479529683e-02 1 1  ON 249
ud_7 -2.5781508482e-02 1 1  ON 250
ud_8 -2.2104430004e-02 1 1  ON 251
ud_9 -2.4860765991e-02 1 1  ON 252
eO_0 -1.0965028047e-01 1 1  ON 253
eO_1 6.0639019510e-02 1 1  ON 254
eO_2 2.3458726667e-01 1 1  ON 255
eO_3 3.6383777664e-01 1 1  ON 256
eO_4 4.2302645905e-01 1 1  ON 257
eO_5 3.2406455108e-01 1 1  ON 258
eO_6 3.1888754105e-01 1 1  ON 259
eO_7 3.2318436779e-01 1 1  ON 260
eO_8 2.4618042033e-01 1 1  ON 261
eO_9 3.2534630881e-01 1 1  ON 262
eH_0 -1.9366536693e-01 1 1  ON 263
eH_1 -1.2562583823e-01 1 1  ON 264
eH_2 -1.1624949372e-01 1 1  ON 265
eH_3 -9.8635211075e-02 1 1  ON 266
eH_4 -8.1586478828e-02 1 1  ON 267
eH_5 -8.1414242609e-02 1 1  ON 268
eH_6 -9.3445446982e-02 1 1  ON 269
eH_7 -8.6224210222e-02 1 1  ON 270
eH_8 -8.9006084903e-02 1 1  ON 271
eH_9 -4.4720484745e-02 1 1  ON 272
uuO_0 3.7422035121e-06 1 1  ON 273
uuO_1 -5.9893235905e-06 1 1  ON 274
uuO_2 -2.0822452506e-06 1 1  ON 275
uuO_3 -5.9191507635e-06 1 1  ON 276
uuO_4 -2.8455024579e-06 1 1  ON 277
uuO_5 5.4732815453e-07 1 1  ON 278
uuO_6 -2.5509186315e-05 1 1  ON 279
uuO_7 2.9798573651e-05 1 1  ON 280
uuO_8 1.3015592810e-05 1 1  ON 281
uuO_9 1.1050999907e-05 1 1  ON 282
uuO_10 -4.1479457918e-06 1 1  ON 283
uuO_11 -1.5994670194e-05 1 1  ON 284
uuO_12 -3.6468219928e-06 1 1  ON 285
uuO_13 5.1315368090e-06 1 1  ON 286
uuO_14 5.7512231697e-06 1 1  ON 287
uuO_15 -2.1851792904e-07 1 1  ON 288
uuO_16 -1.3133712490e-05 1 1  ON 289
uuO_17 1.0715598735e-05 1 1  ON 290
uuO_18 8.7803082437e-06 1 1  ON 291
uuO_19 3.3210436774e-07 1 1  ON 292
uuO_20 1.7116511173e-07 1 1  ON 293
uuO_21 -2.4832993977e-06 1 1  ON 294
uuO_22 2.8929818605e-07 1 1  ON 295
uuO_23 -4.4056325552e-08 1 1  ON 296
uuO_24 4.1552160145e-07 1 1  ON 297
uuO_25 -8.5128187463e-08 1 1  ON 298
udO_0 4.2356158487e-06 1 1  ON 299
udO_1 1.1067220763e-05 1 1  ON 300
udO_2 1.0118099078e-05 1 1  ON 301
udO_3 -1.5262381168e-05 1 1  ON 302
udO_4 -6.1419298778e-06 1 1  ON 303
udO_5 -4.7905038151e-07 1 1  ON 304
udO_6 5.0433834757e-06 1 1  ON 305
udO_7 1.9215387053e-05 1 1  ON 306
udO_8 3.1118396050e-05 1 1  ON 307
udO_9 -1.0541512933e-05 1 1  ON 308
udO_10 -1.0161141940e-05 1 1  ON 309
udO_11 -2.2092647388e-05 1 1  ON 310
udO_12 -8.4933556467e-06 1 1  ON 311
udO_13 2.1495212046e-05 1 1  ON 312
udO_14 9.8485696558e-06 1 1  ON 313
udO_15 -1.8867207935e-07 1 1  ON 314
udO_16 -1.0459240991e-06 1 1  ON 315
udO_17 2.5444948888e-05 1 1  ON 316
udO_18 9.0255528027e-06 1 1  ON 317
udO_19 1.7443179745e-06 1 1  ON 318
udO_20 -6.5854716071e-06 1 1  ON 319
udO_21 -3.1463633989e-06 1 1  ON 320
udO_22 3.0593355192e-07 1 1  ON 321
udO_23 1.2758379413e-06 1 1  ON 322
udO_24 4.9519609068e-07 1 1  ON 323
udO_25 -1.0831910963e-07 1 1  ON 324
uuH_0 -1.5468608659e-06 1 1  ON 325
uuH_1 1.6779604104e-05 1 1  ON 326
uuH_2 1.6809125295e-05 1 1  ON 327
uuH_3 2.6394063091e-06 1 1  ON 328
uuH_4 -1.0308291828e-06 1 1  ON 329
uuH_5 -1.5239527461e-06 1 1  ON 330
uuH_6 3.7073496723e-05 1 1  ON 331
uuH_7 -5.7577648569e-06 1 1  ON 332
uuH_8 8.8820956187e-06 1 1  ON 333
uuH_9 -2.7417682865e-05 1 1  ON 334
uuH_10 4.9880336098e-06 1 1  ON 335
uuH_11 -1.6946129680e-05 1 1  ON 336
uuH_12 -3.4629754122e-07 1 1  ON 337
uuH_13 -1.1511080427e-06 1 1  ON 338
uuH_14 -5.7129215812e-07 1 1  ON 339
uuH_15 9.5465728842e-08 1 1  ON 340
uuH_16 4.3065104509e-05 1 1  ON 341
uuH_17 -2.3457250858e-05 1 1  ON 342
uuH_18 1.9434280790e-05 1 1  ON 343
uuH_19 -1.5851476359e-06 1 1  ON 344
uuH_20 -8.2451801882e-06 1 1  ON 345
uuH_21 -1.9330990265e-06 1 1  ON 346
uuH_22 2.2744703095e-07 1 1  ON 347
uuH_23 2.5853976738e-06 1 1  ON 348
uuH_24 2.2046492408e-07 1 1  ON 349
uuH_25 -3.2770655113e-08 1 1  ON 350
udH_0 -5.0184008470e-07 1 1  ON 351
udH_1 -1.7635966937e-05 1 1  ON 352
udH_2 3.1275112673e-07 1 1  ON 353
udH_3 5.4411858585e-06 1 1  ON 354
udH_4 6.6777599287e-07 1 1  ON 355
udH_5 1.3093516701e-06 1 1  ON 356
udH_6 -3.3618813374e-05 1 1  ON 357
udH_7 2.6254470239e-05 1 1  ON 358
udH_8 6.2637552119e-06 1 1  ON 359
udH_9 2.1058564105e-05 1 1  ON 360
udH_10 6.9909239064e-06 1 1  ON 361
udH_11 -2.0165459075e-05 1 1  ON 362
udH_12 -3.9741658692e-07 1 1  ON 363
udH_13 -8.7383783167e-06 1 1  ON 364
udH_14 2.3624068667e-06 1 1  ON 365
udH_15 -1.6241806218e-07 1 1  ON 366
udH_16 -1.8397130298e-05 1 1  ON 367
udH_17 -1.0554073729e-05 1 1  ON 368
udH_18 1.9226533151e-05 1 1  ON 369
udH_19 -1.7773656801e-06 1 1  ON 370
udH_20 5.7371002564e-06 1 1  ON 371
udH_21 -3.5122747345e-06 1 1  ON 372
udH_22 4.9854588409e-07 1 1  ON 373
udH_23 -1.2894364196e-06 1 1  ON 374
udH_24 7.7474293957e-07 1 1  ON 375
udH_25 -1.3127666304e-07 1 1  ON 376
  </optVariables>
   Restore the number of walkers to 1, removing 159 walkers.
</opt>
</optimization-report>
  QMC Execution time = 1.6395889618e+01 secs 
  Reusing QMCFixedSampleLinearOptimize
 Using QMCCostFunctionOMP::QMCCostFunctionOMP

=========================================================
  Start QMCFixedSampleLinearOptimize
  File Root jopt-h2o.s001 append = no 
=========================================================
  Skip QMCDriver::putQMCInfo 
  Resetting Properties of the walkers 1 x 14

=========================================================
  Start VMCSingleOMP
  File Root jopt-h2o.s001 append = no 
=========================================================
Using existing walkers 
  Resetting Properties of the walkers 1 x 14

<vmc function="put">
  qmc_counter=1  my_counter=1
  time step      = 5.0000000000e-01
  blocks         = 100
  steps          = 2
  substeps       = 20
  current        = 0
  target samples = 5.1200000000e+04
  walkers/mpi    = 1

  stepsbetweensamples = 1
<parameter name="blocks" condition="int">100</parameter>
<parameter name="check_properties" condition="int">100</parameter>
<parameter name="checkproperties" condition="int">100</parameter>
<parameter name="current" condition="int">0</parameter>
<parameter name="dmcwalkersperthread" condition="real">1.6000000000e+02</parameter>
<parameter name="maxcpusecs" condition="real">3.6000000000e+05</parameter>
<parameter name="record_configs" condition="int">0</parameter>
<parameter name="record_walkers" condition="int">1</parameter>
<parameter name="recordconfigs" condition="int">0</parameter>
<parameter name="recordwalkers" condition="int">1</parameter>
<parameter name="rewind" condition="int">0</parameter>
<parameter name="samples" condition="real">5.1200000000e+04</parameter>
<parameter name="samplesperthread" condition="real">1.6000000000e+02</parameter>
<parameter name="steps" condition="int">2</parameter>
<parameter name="stepsbetweensamples" condition="int">1</parameter>
<parameter name="store_configs" condition="int">0</parameter>
<parameter name="storeconfigs" condition="int">0</parameter>
<parameter name="sub_steps" condition="int">20</parameter>
<parameter name="substeps" condition="int">20</parameter>
<parameter name="tau" condition="au">5.0000000000e-01</parameter>
<parameter name="time_step" condition="au">5.0000000000e-01</parameter>
<parameter name="timestep" condition="au">5.0000000000e-01</parameter>
<parameter name="use_drift" condition="string">yes</parameter>
<parameter name="usedrift" condition="string">yes</parameter>
<parameter name="walkers" condition="int">1</parameter>
<parameter name="warmup_steps" condition="int">25</parameter>
<parameter name="warmupsteps" condition="int">25</parameter>
  DumpConfig==false Nothing (configurations, state) will be saved.
  Walker Samples are dumped every 1 steps.
</vmc>
  EstimatorManager::add replace LocalEnergy estimator.
  EstimatorManager::add replace LocalEnergy estimator.
<optimization-report>
<vmc stage="main" blocks="100">
  Cannot make clones again. Use existing 1 clones
  Initial partition of walkers 0 1 
  Total Sample Size   =51200
  Walker distribution on root = 0 1 
====================================================
  SimpleFixedNodeBranch::finalize after a VMC block
    QMC counter        = 1
    time step          = 0.5
    reference energy   = -17.1849
    reference variance = 0.553553
====================================================
  Execution time = 4.0890413300e+00
</vmc>
<opt stage="setup">
  <log>
   Reading configurations from h5FileRoot jopt-h2o.s001
  QMCCostFunctionOMP is created with 1
   Loading configuration from MCWalkerConfiguration::SampleStack 
    number of walkers before load 1
  Using Nonlocal PP in Opt: NonLocalECP
    number of walkers after load: 160 
Using buffers for temporary storage in QMCCostFunction.

Memory usage: 
Linear method (approx matrix usage: 4*N^2): 4.5481280000e+00 MB
Deriv,HDerivRecord:      1.4476800000e+00 MB
Buffer memory cost:     MB/walker       MB/total 
Orbitals only:           2.1120000000e-03      3.3792000000e-01
Orbitals + dervs:        1.0560000000e-02      1.6896000000e+00
Inverse:                 2.5600000000e-04      4.0960000000e-02
Determinants:            4.1344000000e-02      6.6150400000e+00
  VMC Eavg = -1.7266925827e+01
  VMC Evar = 3.8239543494e-01
  Total weights = 5.1200000000e+04
  Execution time = 5.6088022300e-01
  </log>
</opt>
<opt stage="main" walkers="51200">
  <log>
Iteration: 1/1
od_largest 5.7678332555e+07
  stabilityBase -6.0000000000e+00
  stabilizerScale 2.0000000000e+00
  Using XS:-6.0000000000e+00 0 0
ERROR CostFunction-> Number of Effective Walkers is too small 6.9163152551e+00 NumWalkersEff/NumSamples 1.3508428233e-04
ERROR CostFunction-> Number of Effective Walkers is too small 2.3062508770e+00 NumWalkersEff/NumSamples 4.5043962441e-05
ERROR CostFunction-> Number of Effective Walkers is too small 1.0236317733e+00 NumWalkersEff/NumSamples 1.9992808072e-05
ERROR CostFunction-> Number of Effective Walkers is too small 1.0058922743e+00 NumWalkersEff/NumSamples 1.9646333482e-05
ERROR CostFunction-> Number of Effective Walkers is too small 1.0473589464e+00 NumWalkersEff/NumSamples 2.0456229421e-05
ERROR CostFunction-> Number of Effective Walkers is too small 1.0236317733e+00 NumWalkersEff/NumSamples 1.9992808072e-05
  Failed Step. Largest LM parameter change:5.0250545159e+01
ERROR   Using XS:-4.0000000000e+00 1 0
ERROR CostFunction-> Number of Effective Walkers is too small 6.9106448170e+00 NumWalkersEff/NumSamples 1.3497353158e-04
ERROR CostFunction-> Number of Effective Walkers is too small 2.3041692173e+00 NumWalkersEff/NumSamples 4.5003305025e-05
ERROR CostFunction-> Number of Effective Walkers is too small 1.0235979857e+00 NumWalkersEff/NumSamples 1.9992148158e-05
ERROR CostFunction-> Number of Effective Walkers is too small 1.0058804958e+00 NumWalkersEff/NumSamples 1.9646103434e-05
ERROR CostFunction-> Number of Effective Walkers is too small 1.0473046234e+00 NumWalkersEff/NumSamples 2.0455168425e-05
ERROR CostFunction-> Number of Effective Walkers is too small 1.0235979857e+00 NumWalkersEff/NumSamples 1.9992148158e-05
  Failed Step. Largest LM parameter change:5.0271258519e+01
ERROR   Using XS:-2.0000000000e+00 2 0
ERROR CostFunction-> Number of Effective Walkers is too small 6.8662376982e+00 NumWalkersEff/NumSamples 1.3410620504e-04
ERROR CostFunction-> Number of Effective Walkers is too small 2.2877816645e+00 NumWalkersEff/NumSamples 4.4683235634e-05
ERROR CostFunction-> Number of Effective Walkers is too small 1.0233311778e+00 NumWalkersEff/NumSamples 1.9986937066e-05
ERROR CostFunction-> Number of Effective Walkers is too small 1.0057877212e+00 NumWalkersEff/NumSamples 1.9644291431e-05
ERROR CostFunction-> Number of Effective Walkers is too small 1.0468751231e+00 NumWalkersEff/NumSamples 2.0446779748e-05
ERROR CostFunction-> Number of Effective Walkers is too small 1.0233311778e+00 NumWalkersEff/NumSamples 1.9986937066e-05
  Failed Step. Largest LM parameter change:5.0435876847e+01
ERROR   Using XS:0.0000000000e+00 3 0
ERROR CostFunction-> Number of Effective Walkers is too small 1.0000000007e+00 NumWalkersEff/NumSamples 1.9531250014e-05
ERROR CostFunction-> Number of Effective Walkers is too small 1.0928057984e+00 NumWalkersEff/NumSamples 2.1343863250e-05
ERROR CostFunction-> Number of Effective Walkers is too small 1.0000000000e+00 NumWalkersEff/NumSamples 1.9531250000e-05
ERROR CostFunction-> Number of Effective Walkers is too small 1.0000000000e+00 NumWalkersEff/NumSamples 1.9531250000e-05
ERROR CostFunction-> Number of Effective Walkers is too small 1.0000000000e+00 NumWalkersEff/NumSamples 1.9531250000e-05
ERROR CostFunction-> Number of Effective Walkers is too small 1.0000000000e+00 NumWalkersEff/NumSamples 1.9531250000e-05
  Failed Step. Largest LM parameter change:8.7990672293e+01
ERROR   Using XS:2.0000000000e+00 4 0
ERROR CostFunction-> Number of Effective Walkers is too small 1.0000582122e+00 NumWalkersEff/NumSamples 1.9532386956e-05
ERROR CostFunction-> Number of Effective Walkers is too small 1.0000000000e+00 NumWalkersEff/NumSamples 1.9531250000e-05
ERROR CostFunction-> Number of Effective Walkers is too small 1.0000000000e+00 NumWalkersEff/NumSamples 1.9531250000e-05
ERROR CostFunction-> Number of Effective Walkers is too small 1.0000000000e+00 NumWalkersEff/NumSamples 1.9531250000e-05
ERROR CostFunction-> Number of Effective Walkers is too small 1.0000000000e+00 NumWalkersEff/NumSamples 1.9531250000e-05
ERROR CostFunction-> Number of Effective Walkers is too small 1.0000000000e+00 NumWalkersEff/NumSamples 1.9531250000e-05
  Failed Step. Largest LM parameter change:2.7880918088e+02
ERROR   Using XS:4.0000000000e+00 5 0
  Good Step. Largest LM parameter change:1.1754433755e+00
 OldCost: -1.6354065109e+01 NewCost: -1.6378759091e+01 Delta Cost:-2.4693981833e-02
      Current ene:     -1.7252049202e+01
      Current var:     2.1375303609e-01
      Current ene_urw:     -1.7247060989e+01
      Current var_urw: 2.1947724534e-01
Setting new Parameters
ERROR   Execution time = 1.5839273389e+01
  </log>
  <optVariables href="jopt-h2o.s001.opt.xml">
CSFcoeff_1 -2.1631895203e-02 3 1  ON 0
CSFcoeff_2 3.1095778344e-02 3 1  ON 1
CSFcoeff_3 -2.2264667196e-02 3 1  ON 2
CSFcoeff_4 -2.1407605296e-02 3 1  ON 3
CSFcoeff_5 -1.5049127039e-02 3 1  ON 4
CSFcoeff_6 2.0406976680e-02 3 1  ON 5
CSFcoeff_7 -1.4707774647e-02 3 1  ON 6
CSFcoeff_8 1.5493265197e-02 3 1  ON 7
CSFcoeff_9 1.3428258138e-02 3 1  ON 8
CSFcoeff_10 -1.6080700720e-02 3 1  ON 9
CSFcoeff_11 -1.4212803947e-02 3 1  ON 10
CSFcoeff_12 -1.5881214686e-02 3 1  ON 11
CSFcoeff_13 -1.4718602402e-02 3 1  ON 12
CSFcoeff_14 -1.5031985477e-02 3 1  ON 13
CSFcoeff_15 1.1311541054e-02 3 1  ON 14
CSFcoeff_16 -1.8399464537e-02 3 1  ON 15
CSFcoeff_17 -1.3489443144e-02 3 1  ON 16
CSFcoeff_18 -1.3091722172e-02 3 1  ON 17
CSFcoeff_19 1.1823688238e-02 3 1  ON 18
CSFcoeff_20 1.2122349339e-02 3 1  ON 19
CSFcoeff_21 1.3467612285e-02 3 1  ON 20
CSFcoeff_22 -1.5007694360e-02 3 1  ON 21
CSFcoeff_23 -1.6025615274e-02 3 1  ON 22
CSFcoeff_24 1.1955024593e-02 3 1  ON 23
CSFcoeff_25 1.3015408855e-02 3 1  ON 24
CSFcoeff_26 -1.4649920725e-02 3 1  ON 25
CSFcoeff_27 1.5767307456e-02 3 1  ON 26
CSFcoeff_28 1.4615824274e-02 3 1  ON 27
CSFcoeff_29 -7.4773455226e-03 3 1  ON 28
CSFcoeff_30 1.4079898604e-02 3 1  ON 29
CSFcoeff_31 5.8078086007e-03 3 1  ON 30
CSFcoeff_32 -8.6352563307e-03 3 1  ON 31
CSFcoeff_33 -9.0125951156e-03 3 1  ON 32
CSFcoeff_34 7.6675210316e-03 3 1  ON 33
CSFcoeff_35 1.2242739053e-02 3 1  ON 34
CSFcoeff_36 -1.5819890648e-02 3 1  ON 35
CSFcoeff_37 -9.5712639052e-03 3 1  ON 36
CSFcoeff_38 -8.2203057822e-03 3 1  ON 37
CSFcoeff_39 1.1485295497e-02 3 1  ON 38
CSFcoeff_40 1.3939756108e-02 3 1  ON 39
CSFcoeff_41 -9.6990660138e-03 3 1  ON 40
CSFcoeff_42 -7.4214549257e-03 3 1  ON 41
CSFcoeff_43 1.3047577869e-02 3 1  ON 42
CSFcoeff_44 8.7850474121e-03 3 1  ON 43
CSFcoeff_45 1.1676098008e-02 3 1  ON 44
CSFcoeff_46 -6.1908564382e-03 3 1  ON 45
CSFcoeff_47 9.8545963413e-03 3 1  ON 46
CSFcoeff_48 -7.7257034313e-03 3 1  ON 47
CSFcoeff_49 1.1274509970e-02 3 1  ON 48
CSFcoeff_50 -1.1749184982e-02 3 1  ON 49
CSFcoeff_51 7.0973295452e-03 3 1  ON 50
CSFcoeff_52 -9.4110114001e-03 3 1  ON 51
CSFcoeff_53 1.0672065300e-02 3 1  ON 52
CSFcoeff_54 -8.1095760363e-03 3 1  ON 53
CSFcoeff_55 1.3131532944e-02 3 1  ON 54
CSFcoeff_56 7.6098621646e-03 3 1  ON 55
CSFcoeff_57 -9.8864721665e-03 3 1  ON 56
CSFcoeff_58 -1.0305234223e-02 3 1  ON 57
CSFcoeff_59 7.7438631040e-03 3 1  ON 58
CSFcoeff_60 1.2644984934e-02 3 1  ON 59
CSFcoeff_61 -1.1053910086e-02 3 1  ON 60
CSFcoeff_62 -6.3831985644e-03 3 1  ON 61
CSFcoeff_63 7.9074121468e-03 3 1  ON 62
CSFcoeff_64 -1.0495474395e-02 3 1  ON 63
CSFcoeff_65 7.1284122504e-03 3 1  ON 64
CSFcoeff_66 8.6016299876e-03 3 1  ON 65
CSFcoeff_67 -9.4749760629e-03 3 1  ON 66
CSFcoeff_68 1.0027163479e-02 3 1  ON 67
CSFcoeff_69 -9.1175554542e-03 3 1  ON 68
CSFcoeff_70 -7.6493230847e-03 3 1  ON 69
CSFcoeff_71 -9.4029101249e-03 3 1  ON 70
CSFcoeff_72 5.6522188389e-03 3 1  ON 71
CSFcoeff_73 -9.2862077773e-03 3 1  ON 72
CSFcoeff_74 -9.4369802138e-03 3 1  ON 73
CSFcoeff_75 -7.8291847551e-03 3 1  ON 74
CSFcoeff_76 -8.2167884892e-03 3 1  ON 75
CSFcoeff_77 -7.8607566546e-03 3 1  ON 76
CSFcoeff_78 -1.0443396071e-02 3 1  ON 77
CSFcoeff_79 1.1806745526e-02 3 1  ON 78
CSFcoeff_80 7.7374630801e-03 3 1  ON 79
CSFcoeff_81 7.8782066526e-03 3 1  ON 80
CSFcoeff_82 6.2052045027e-03 3 1  ON 81
CSFcoeff_83 -8.8727518801e-03 3 1  ON 82
CSFcoeff_84 -5.5957453558e-03 3 1  ON 83
CSFcoeff_85 7.4324709763e-03 3 1  ON 84
CSFcoeff_86 -8.8182426297e-03 3 1  ON 85
CSFcoeff_87 1.0473628385e-02 3 1  ON 86
CSFcoeff_88 -1.0614324887e-02 3 1  ON 87
CSFcoeff_89 -1.0898409803e-02 3 1  ON 88
CSFcoeff_90 8.2859351266e-03 3 1  ON 89
CSFcoeff_91 -9.9090487991e-03 3 1  ON 90
CSFcoeff_92 8.9048528722e-03 3 1  ON 91
CSFcoeff_93 3.7957519202e-03 3 1  ON 92
CSFcoeff_94 9.1237880844e-03 3 1  ON 93
CSFcoeff_95 7.6671356366e-03 3 1  ON 94
CSFcoeff_96 9.1971436980e-03 3 1  ON 95
CSFcoeff_97 8.2065618912e-03 3 1  ON 96
CSFcoeff_98 7.5192998879e-03 3 1  ON 97
CSFcoeff_99 -8.1325313288e-03 3 1  ON 98
CSFcoeff_100 1.2500359456e-02 3 1  ON 99
CSFcoeff_101 -4.2995954069e-03 3 1  ON 100
CSFcoeff_102 -8.8436608910e-03 3 1  ON 101
CSFcoeff_103 8.1598746591e-03 3 1  ON 102
CSFcoeff_104 1.0906171843e-02 3 1  ON 103
CSFcoeff_105 8.2999008176e-03 3 1  ON 104
CSFcoeff_106 1.0023831762e-02 3 1  ON 105
CSFcoeff_107 -6.7981942852e-03 3 1  ON 106
CSFcoeff_108 4.9286901997e-03 3 1  ON 107
CSFcoeff_109 -6.2200965023e-03 3 1  ON 108
CSFcoeff_110 7.8616928615e-03 3 1  ON 109
CSFcoeff_111 -5.7200792732e-03 3 1  ON 110
CSFcoeff_112 -5.3292595022e-03 3 1  ON 111
CSFcoeff_113 -1.3151353067e-02 3 1  ON 112
CSFcoeff_114 -7.2491212644e-03 3 1  ON 113
CSFcoeff_115 8.6537046123e-03 3 1  ON 114
CSFcoeff_116 -5.9557711704e-03 3 1  ON 115
CSFcoeff_117 -3.8327726451e-03 3 1  ON 116
CSFcoeff_118 -4.3479383911e-03 3 1  ON 117
CSFcoeff_119 4.7612583758e-03 3 1  ON 118
CSFcoeff_120 -8.5713148249e-03 3 1  ON 119
CSFcoeff_121 -8.3826446373e-03 3 1  ON 120
CSFcoeff_122 6.0140183924e-03 3 1  ON 121
CSFcoeff_123 1.0144913578e-02 3 1  ON 122
CSFcoeff_124 7.7133439600e-03 3 1  ON 123
CSFcoeff_125 -5.0527370191e-03 3 1  ON 124
CSFcoeff_126 8.2242660000e-03 3 1  ON 125
CSFcoeff_127 5.8205038040e-03 3 1  ON 126
CSFcoeff_128 -7.6146593501e-03 3 1  ON 127
CSFcoeff_129 -6.5368552626e-03 3 1  ON 128
CSFcoeff_130 -4.5950720638e-03 3 1  ON 129
CSFcoeff_131 -6.4730545667e-03 3 1  ON 130
CSFcoeff_132 -7.6235002855e-03 3 1  ON 131
CSFcoeff_133 -8.1776794083e-03 3 1  ON 132
CSFcoeff_134 -1.1584398695e-02 3 1  ON 133
CSFcoeff_135 -5.2279747843e-03 3 1  ON 134
CSFcoeff_136 -8.7092421685e-03 3 1  ON 135
CSFcoeff_137 -7.8935835121e-03 3 1  ON 136
CSFcoeff_138 7.6252079509e-03 3 1  ON 137
CSFcoeff_139 -5.4332212181e-03 3 1  ON 138
CSFcoeff_140 4.1333862011e-03 3 1  ON 139
CSFcoeff_141 7.5398596783e-03 3 1  ON 140
CSFcoeff_142 -8.6977416742e-03 3 1  ON 141
CSFcoeff_143 5.7755201665e-03 3 1  ON 142
CSFcoeff_144 -4.2995611460e-03 3 1  ON 143
CSFcoeff_145 -4.6496219200e-03 3 1  ON 144
CSFcoeff_146 -7.5140071371e-03 3 1  ON 145
CSFcoeff_147 4.5718416445e-03 3 1  ON 146
CSFcoeff_148 -8.0188620551e-03 3 1  ON 147
CSFcoeff_149 5.3005951986e-03 3 1  ON 148
CSFcoeff_150 5.7575630986e-03 3 1  ON 149
CSFcoeff_151 5.4039372248e-03 3 1  ON 150
CSFcoeff_152 5.3860977230e-03 3 1  ON 151
CSFcoeff_153 -5.9676630074e-03 3 1  ON 152
CSFcoeff_154 -5.9525928951e-03 3 1  ON 153
CSFcoeff_155 -5.7256464333e-03 3 1  ON 154
CSFcoeff_156 4.3842499521e-03 3 1  ON 155
CSFcoeff_157 -5.3137498064e-03 3 1  ON 156
CSFcoeff_158 4.6638886416e-03 3 1  ON 157
CSFcoeff_159 3.8708494844e-03 3 1  ON 158
CSFcoeff_160 6.2897452579e-03 3 1  ON 159
CSFcoeff_161 3.5030527191e-03 3 1  ON 160
CSFcoeff_162 6.4666857269e-03 3 1  ON 161
CSFcoeff_163 3.6658938001e-03 3 1  ON 162
CSFcoeff_164 8.2486638072e-03 3 1  ON 163
CSFcoeff_165 -6.9429040308e-03 3 1  ON 164
CSFcoeff_166 5.1432113315e-03 3 1  ON 165
CSFcoeff_167 1.0236031648e-02 3 1  ON 166
CSFcoeff_168 6.9324038147e-03 3 1  ON 167
CSFcoeff_169 -7.4545166810e-03 3 1  ON 168
CSFcoeff_170 -2.7844048051e-03 3 1  ON 169
CSFcoeff_171 -7.6933308694e-03 3 1  ON 170
CSFcoeff_172 8.0920899335e-03 3 1  ON 171
CSFcoeff_173 4.6900309555e-03 3 1  ON 172
CSFcoeff_174 -6.6988172671e-03 3 1  ON 173
CSFcoeff_175 -3.4364282390e-03 3 1  ON 174
CSFcoeff_176 5.7033002422e-03 3 1  ON 175
CSFcoeff_177 2.1224690423e-04 3 1  ON 176
CSFcoeff_178 3.6740169880e-03 3 1  ON 177
CSFcoeff_179 -5.7696020712e-03 3 1  ON 178
CSFcoeff_180 -8.2580801448e-03 3 1  ON 179
CSFcoeff_181 5.6646591552e-03 3 1  ON 180
CSFcoeff_182 -4.5955270490e-03 3 1  ON 181
CSFcoeff_183 2.9437959313e-03 3 1  ON 182
CSFcoeff_184 -5.4203643283e-03 3 1  ON 183
CSFcoeff_185 4.9987821865e-03 3 1  ON 184
CSFcoeff_186 4.0373847407e-03 3 1  ON 185
CSFcoeff_187 -6.6782759252e-03 3 1  ON 186
CSFcoeff_188 4.4404831788e-03 3 1  ON 187
CSFcoeff_189 -4.6769066875e-03 3 1  ON 188
CSFcoeff_190 -7.5003409773e-03 3 1  ON 189
CSFcoeff_191 3.9779711957e-03 3 1  ON 190
CSFcoeff_192 -5.8675170892e-03 3 1  ON 191
CSFcoeff_193 -4.5926011575e-03 3 1  ON 192
CSFcoeff_194 -7.5268541776e-03 3 1  ON 193
CSFcoeff_195 -7.1901157388e-03 3 1  ON 194
CSFcoeff_196 -2.1450528799e-03 3 1  ON 195
CSFcoeff_197 -3.4935630383e-03 3 1  ON 196
CSFcoeff_198 4.6065783081e-03 3 1  ON 197
CSFcoeff_199 4.3062651896e-03 3 1  ON 198
CSFcoeff_200 -4.6145117735e-03 3 1  ON 199
CSFcoeff_201 -4.6839587389e-03 3 1  ON 200
CSFcoeff_202 9.8270931368e-03 3 1  ON 201
CSFcoeff_203 1.1749861398e-03 3 1  ON 202
CSFcoeff_204 -7.2986951249e-03 3 1  ON 203
CSFcoeff_205 6.7343816355e-03 3 1  ON 204
CSFcoeff_206 -5.7965335376e-03 3 1  ON 205
CSFcoeff_207 -5.6941286513e-03 3 1  ON 206
CSFcoeff_208 -4.2137142315e-03 3 1  ON 207
CSFcoeff_209 6.2804714709e-03 3 1  ON 208
CSFcoeff_210 -3.6868960509e-03 3 1  ON 209
CSFcoeff_211 -5.1483907957e-03 3 1  ON 210
CSFcoeff_212 -4.8703380480e-03 3 1  ON 211
CSFcoeff_213 -4.1972999339e-03 3 1  ON 212
CSFcoeff_214 -7.4198276057e-03 3 1  ON 213
CSFcoeff_215 2.1431933337e-03 3 1  ON 214
CSFcoeff_216 -6.0006854708e-03 3 1  ON 215
CSFcoeff_217 -4.9349308548e-03 3 1  ON 216
CSFcoeff_218 -6.0293885416e-03 3 1  ON 217
CSFcoeff_219 -1.2058167637e-03 3 1  ON 218
CSFcoeff_220 4.8272272952e-03 3 1  ON 219
CSFcoeff_221 -2.5222208908e-03 3 1  ON 220
CSFcoeff_222 -5.4261978818e-03 3 1  ON 221
CSFcoeff_223 -2.7044233108e-03 3 1  ON 222
CSFcoeff_224 -5.0635372426e-03 3 1  ON 223
CSFcoeff_225 -2.8277886360e-03 3 1  ON 224
CSFcoeff_226 7.1611856308e-03 3 1  ON 225
CSFcoeff_227 -3.9751268790e-03 3 1  ON 226
CSFcoeff_228 -9.8414156281e-03 3 1  ON 227
CSFcoeff_229 -1.8662766262e-03 3 1  ON 228
CSFcoeff_230 -2.0901915621e-03 3 1  ON 229
CSFcoeff_231 -5.5654635281e-03 3 1  ON 230
CSFcoeff_232 -2.5140770216e-03 3 1  ON 231
CSFcoeff_233 -6.7161573694e-03 3 1  ON 232
uu_0 3.5949427868e-01 1 1  ON 233
uu_1 2.3646223194e-01 1 1  ON 234
uu_2 1.5684039728e-01 1 1  ON 235
uu_3 1.3258428134e-01 1 1  ON 236
uu_4 1.1051943719e-01 1 1  ON 237
uu_5 1.0289070468e-01 1 1  ON 238
uu_6 9.4596896234e-02 1 1  ON 239
uu_7 8.4848366959e-02 1 1  ON 240
uu_8 9.6233353800e-02 1 1  ON 241
uu_9 5.7508590866e-02 1 1  ON 242
ud_0 3.7917013736e-01 1 1  ON 243
ud_1 1.3038107688e-01 1 1  ON 244
ud_2 2.9929643537e-02 1 1  ON 245
ud_3 1.2904311619e-02 1 1  ON 246
ud_4 -7.6215073092e-03 1 1  ON 247
ud_5 -2.3025088586e-02 1 1  ON 248
ud_6 -3.0937127579e-02 1 1  ON 249
ud_7 -3.1069529223e-02 1 1  ON 250
ud_8 -3.9221526533e-02 1 1  ON 251
ud_9 -5.9431480478e-02 1 1  ON 252
eO_0 -1.2850936560e+00 1 1  ON 253
eO_1 -1.0098060235e+00 1 1  ON 254
eO_2 -5.5897756481e-01 1 1  ON 255
eO_3 -2.8258716034e-01 1 1  ON 256
eO_4 -1.0782637630e-01 1 1  ON 257
eO_5 4.5752786975e-02 1 1  ON 258
eO_6 1.1105124722e-01 1 1  ON 259
eO_7 9.4050847276e-02 1 1  ON 260
eO_8 1.1188056990e-01 1 1  ON 261
eO_9 4.1986302527e-01 1 1  ON 262
eH_0 -3.3140425688e-01 1 1  ON 263
eH_1 -2.8091898986e-01 1 1  ON 264
eH_2 -2.4925099206e-01 1 1  ON 265
eH_3 -2.0221338342e-01 1 1  ON 266
eH_4 -1.7238485452e-01 1 1  ON 267
eH_5 -1.7528840576e-01 1 1  ON 268
eH_6 -1.8791268579e-01 1 1  ON 269
eH_7 -1.7637876989e-01 1 1  ON 270
eH_8 -1.8354857022e-01 1 1  ON 271
eH_9 -6.3855446970e-02 1 1  ON 272
uuO_0 1.7110507937e-05 1 1  ON 273
uuO_1 7.2772160630e-06 1 1  ON 274
uuO_2 -2.3085711238e-05 1 1  ON 275
uuO_3 -2.5464853169e-05 1 1  ON 276
uuO_4 -4.4804849159e-06 1 1  ON 277
uuO_5 1.9560649613e-06 1 1  ON 278
uuO_6 -1.0048657295e-05 1 1  ON 279
uuO_7 -3.5128331797e-05 1 1  ON 280
uuO_8 -3.2814625235e-06 1 1  ON 281
uuO_9 -9.1149958201e-07 1 1  ON 282
uuO_10 -2.4694194386e-05 1 1  ON 283
uuO_11 3.9774175682e-05 1 1  ON 284
uuO_12 -6.5663271030e-06 1 1  ON 285
uuO_13 3.5182850539e-05 1 1  ON 286
uuO_14 4.0105256060e-06 1 1  ON 287
uuO_15 2.8177898436e-07 1 1  ON 288
uuO_16 -5.0035819957e-06 1 1  ON 289
uuO_17 5.6033306416e-05 1 1  ON 290
uuO_18 -4.1417038142e-05 1 1  ON 291
uuO_19 7.7071175136e-06 1 1  ON 292
uuO_20 -1.5761227049e-05 1 1  ON 293
uuO_21 4.8474578475e-06 1 1  ON 294
uuO_22 -1.1487278223e-06 1 1  ON 295
uuO_23 5.2448099441e-06 1 1  ON 296
uuO_24 -1.3775492353e-06 1 1  ON 297
uuO_25 2.6837432665e-07 1 1  ON 298
udO_0 2.2287183959e-07 1 1  ON 299
udO_1 3.5814743980e-05 1 1  ON 300
udO_2 2.4478722747e-05 1 1  ON 301
udO_3 -1.7453778476e-05 1 1  ON 302
udO_4 -8.5288166922e-06 1 1  ON 303
udO_5 -2.1588153588e-07 1 1  ON 304
udO_6 8.1028654353e-05 1 1  ON 305
udO_7 -3.7221966892e-05 1 1  ON 306
udO_8 2.0614927499e-05 1 1  ON 307
udO_9 -5.6037488882e-05 1 1  ON 308
udO_10 -1.6562239587e-05 1 1  ON 309
udO_11 5.2800522530e-06 1 1  ON 310
udO_12 -7.7391014307e-06 1 1  ON 311
udO_13 2.2135497600e-05 1 1  ON 312
udO_14 1.9888878904e-06 1 1  ON 313
udO_15 5.6518836328e-07 1 1  ON 314
udO_16 7.1108214891e-05 1 1  ON 315
udO_17 8.3410825191e-06 1 1  ON 316
udO_18 -1.2005542471e-05 1 1  ON 317
udO_19 5.2673949975e-06 1 1  ON 318
udO_20 -1.8090383018e-05 1 1  ON 319
udO_21 3.0260539693e-06 1 1  ON 320
udO_22 -9.3923125586e-07 1 1  ON 321
udO_23 3.8040314132e-06 1 1  ON 322
udO_24 -1.0552338706e-06 1 1  ON 323
udO_25 2.3545652665e-07 1 1  ON 324
uuH_0 2.5710146310e-06 1 1  ON 325
uuH_1 1.1939449767e-05 1 1  ON 326
uuH_2 6.0145004963e-06 1 1  ON 327
uuH_3 -4.9393459719e-06 1 1  ON 328
uuH_4 -1.9495259920e-06 1 1  ON 329
uuH_5 -3.2958280133e-07 1 1  ON 330
uuH_6 1.4036413754e-05 1 1  ON 331
uuH_7 3.2562239583e-06 1 1  ON 332
uuH_8 6.0683679514e-06 1 1  ON 333
uuH_9 -1.5693782863e-05 1 1  ON 334
uuH_10 -2.3808344541e-06 1 1  ON 335
uuH_11 -7.3981497652e-06 1 1  ON 336
uuH_12 -1.1106280354e-06 1 1  ON 337
uuH_13 5.9037138819e-06 1 1  ON 338
uuH_14 8.4046139582e-07 1 1  ON 339
uuH_15 3.8154043074e-08 1 1  ON 340
uuH_16 2.2221882902e-05 1 1  ON 341
uuH_17 -3.8996918721e-06 1 1  ON 342
uuH_18 6.0096420401e-06 1 1  ON 343
uuH_19 1.8479392641e-08 1 1  ON 344
uuH_20 -6.3833736564e-06 1 1  ON 345
uuH_21 -5.6738815334e-07 1 1  ON 346
uuH_22 -2.0210052169e-09 1 1  ON 347
uuH_23 1.7555333221e-06 1 1  ON 348
uuH_24 -7.7536605447e-09 1 1  ON 349
uuH_25 1.0419003103e-08 1 1  ON 350
udH_0 -4.6956369478e-06 1 1  ON 351
udH_1 -2.9379414086e-06 1 1  ON 352
udH_2 4.7432635604e-06 1 1  ON 353
udH_3 -2.6570934135e-06 1 1  ON 354
udH_4 -2.9552298395e-06 1 1  ON 355
udH_5 7.4282005660e-07 1 1  ON 356
udH_6 3.5308341609e-06 1 1  ON 357
udH_7 -1.9617891988e-06 1 1  ON 358
udH_8 2.0635499598e-06 1 1  ON 359
udH_9 2.6375482747e-06 1 1  ON 360
udH_10 -4.6150812615e-06 1 1  ON 361
udH_11 3.4584881320e-06 1 1  ON 362
udH_12 -1.4717505206e-06 1 1  ON 363
udH_13 1.0438189917e-06 1 1  ON 364
udH_14 -3.1336901503e-07 1 1  ON 365
udH_15 2.0047783923e-07 1 1  ON 366
udH_16 3.7516545110e-06 1 1  ON 367
udH_17 3.2241289482e-07 1 1  ON 368
udH_18 -3.8374192385e-06 1 1  ON 369
udH_19 1.2252324665e-06 1 1  ON 370
udH_20 -1.4091252624e-06 1 1  ON 371
udH_21 9.5633458552e-07 1 1  ON 372
udH_22 -2.6722967678e-07 1 1  ON 373
udH_23 4.6910823668e-07 1 1  ON 374
udH_24 -2.7749235727e-07 1 1  ON 375
udH_25 6.7946885523e-08 1 1  ON 376
  </optVariables>
   Restore the number of walkers to 1, removing 159 walkers.
</opt>
</optimization-report>
  QMC Execution time = 1.5860354091e+01 secs 
  Reusing QMCFixedSampleLinearOptimize
 Using QMCCostFunctionOMP::QMCCostFunctionOMP

=========================================================
  Start QMCFixedSampleLinearOptimize
  File Root jopt-h2o.s002 append = no 
=========================================================
  Skip QMCDriver::putQMCInfo 
  Resetting Properties of the walkers 1 x 14

=========================================================
  Start VMCSingleOMP
  File Root jopt-h2o.s002 append = no 
=========================================================
Using existing walkers 
  Resetting Properties of the walkers 1 x 14

<vmc function="put">
  qmc_counter=2  my_counter=2
  time step      = 5.0000000000e-01
  blocks         = 100
  steps          = 2
  substeps       = 20
  current        = 0
  target samples = 5.1200000000e+04
  walkers/mpi    = 1

  stepsbetweensamples = 1
<parameter name="blocks" condition="int">100</parameter>
<parameter name="check_properties" condition="int">100</parameter>
<parameter name="checkproperties" condition="int">100</parameter>
<parameter name="current" condition="int">0</parameter>
<parameter name="dmcwalkersperthread" condition="real">1.6000000000e+02</parameter>
<parameter name="maxcpusecs" condition="real">3.6000000000e+05</parameter>
<parameter name="record_configs" condition="int">0</parameter>
<parameter name="record_walkers" condition="int">1</parameter>
<parameter name="recordconfigs" condition="int">0</parameter>
<parameter name="recordwalkers" condition="int">1</parameter>
<parameter name="rewind" condition="int">0</parameter>
<parameter name="samples" condition="real">5.1200000000e+04</parameter>
<parameter name="samplesperthread" condition="real">1.6000000000e+02</parameter>
<parameter name="steps" condition="int">2</parameter>
<parameter name="stepsbetweensamples" condition="int">1</parameter>
<parameter name="store_configs" condition="int">0</parameter>
<parameter name="storeconfigs" condition="int">0</parameter>
<parameter name="sub_steps" condition="int">20</parameter>
<parameter name="substeps" condition="int">20</parameter>
<parameter name="tau" condition="au">5.0000000000e-01</parameter>
<parameter name="time_step" condition="au">5.0000000000e-01</parameter>
<parameter name="timestep" condition="au">5.0000000000e-01</parameter>
<parameter name="use_drift" condition="string">yes</parameter>
<parameter name="usedrift" condition="string">yes</parameter>
<parameter name="walkers" condition="int">1</parameter>
<parameter name="warmup_steps" condition="int">25</parameter>
<parameter name="warmupsteps" condition="int">25</parameter>
  DumpConfig==false Nothing (configurations, state) will be saved.
  Walker Samples are dumped every 1 steps.
</vmc>
  EstimatorManager::add replace LocalEnergy estimator.
  EstimatorManager::add replace LocalEnergy estimator.
<optimization-report>
<vmc stage="main" blocks="100">
  Cannot make clones again. Use existing 1 clones
  Initial partition of walkers 0 1 
  Total Sample Size   =51200
  Walker distribution on root = 0 1 
====================================================
  SimpleFixedNodeBranch::finalize after a VMC block
    QMC counter        = 2
    time step          = 0.5
    reference energy   = -17.3078
    reference variance = 0.486151
====================================================
  Execution time = 4.0883723210e+00
</vmc>
<opt stage="setup">
  <log>
   Reading configurations from h5FileRoot jopt-h2o.s002
  QMCCostFunctionOMP is created with 1
   Loading configuration from MCWalkerConfiguration::SampleStack 
    number of walkers before load 1
  Using Nonlocal PP in Opt: NonLocalECP
    number of walkers after load: 160 
Using buffers for temporary storage in QMCCostFunction.

Memory usage: 
Linear method (approx matrix usage: 4*N^2): 4.5481280000e+00 MB
Deriv,HDerivRecord:      1.4476800000e+00 MB
Buffer memory cost:     MB/walker       MB/total 
Orbitals only:           2.1120000000e-03      3.3792000000e-01
Orbitals + dervs:        1.0560000000e-02      1.6896000000e+00
Inverse:                 2.5600000000e-04      4.0960000000e-02
Determinants:            4.1344000000e-02      6.6150400000e+00
  VMC Eavg = -1.6086622824e+01
  VMC Evar = 7.4415268903e+00
  Total weights = 5.1200000000e+04
  Execution time = 5.5930000500e-01
  </log>
</opt>
<opt stage="main" walkers="51200">
  <log>
Iteration: 1/1
od_largest 5.7551216475e+07
  stabilityBase -6.0000000000e+00
  stabilizerScale 2.0000000000e+00
  Using XS:-6.0000000000e+00 0 0
ERROR CostFunction-> Number of Effective Walkers is too small 1.0002043317e+00 NumWalkersEff/NumSamples 1.9535240853e-05
ERROR CostFunction-> Number of Effective Walkers is too small 1.0000128383e+00 NumWalkersEff/NumSamples 1.9531500748e-05
ERROR CostFunction-> Number of Effective Walkers is too small 1.0000024247e+00 NumWalkersEff/NumSamples 1.9531297358e-05
ERROR CostFunction-> Number of Effective Walkers is too small 1.0000000414e+00 NumWalkersEff/NumSamples 1.9531250809e-05
ERROR CostFunction-> Number of Effective Walkers is too small 1.0000000008e+00 NumWalkersEff/NumSamples 1.9531250016e-05
ERROR CostFunction-> Number of Effective Walkers is too small 1.0000000000e+00 NumWalkersEff/NumSamples 1.9531250000e-05
  Failed Step. Largest LM parameter change:2.9134660460e+02
ERROR   Using XS:-4.0000000000e+00 1 0
ERROR CostFunction-> Number of Effective Walkers is too small 1.0002022176e+00 NumWalkersEff/NumSamples 1.9535199563e-05
ERROR CostFunction-> Number of Effective Walkers is too small 1.0000125782e+00 NumWalkersEff/NumSamples 1.9531495667e-05
ERROR CostFunction-> Number of Effective Walkers is too small 1.0000023819e+00 NumWalkersEff/NumSamples 1.9531296522e-05
ERROR CostFunction-> Number of Effective Walkers is too small 1.0000000404e+00 NumWalkersEff/NumSamples 1.9531250789e-05
ERROR CostFunction-> Number of Effective Walkers is too small 1.0000000008e+00 NumWalkersEff/NumSamples 1.9531250015e-05
ERROR CostFunction-> Number of Effective Walkers is too small 1.0000000000e+00 NumWalkersEff/NumSamples 1.9531250000e-05
  Failed Step. Largest LM parameter change:2.9196115217e+02
ERROR   Using XS:-2.0000000000e+00 2 0
ERROR CostFunction-> Number of Effective Walkers is too small 1.0001858812e+00 NumWalkersEff/NumSamples 1.9534880493e-05
ERROR CostFunction-> Number of Effective Walkers is too small 1.0000106571e+00 NumWalkersEff/NumSamples 1.9531458147e-05
ERROR CostFunction-> Number of Effective Walkers is too small 1.0000020614e+00 NumWalkersEff/NumSamples 1.9531290262e-05
ERROR CostFunction-> Number of Effective Walkers is too small 1.0000000328e+00 NumWalkersEff/NumSamples 1.9531250641e-05
ERROR CostFunction-> Number of Effective Walkers is too small 1.0000000006e+00 NumWalkersEff/NumSamples 1.9531250012e-05
ERROR CostFunction-> Number of Effective Walkers is too small 1.0000000000e+00 NumWalkersEff/NumSamples 1.9531250000e-05
  Failed Step. Largest LM parameter change:2.9695395086e+02
ERROR   Using XS:0.0000000000e+00 3 0
ERROR CostFunction-> Number of Effective Walkers is too small 4.9844014356e+00 NumWalkersEff/NumSamples 9.7351590540e-05
ERROR CostFunction-> Number of Effective Walkers is too small 1.1165003533e+00 NumWalkersEff/NumSamples 2.1806647526e-05
ERROR CostFunction-> Number of Effective Walkers is too small 1.0005974382e+00 NumWalkersEff/NumSamples 1.9542918714e-05
ERROR CostFunction-> Number of Effective Walkers is too small 1.0000029762e+00 NumWalkersEff/NumSamples 1.9531308128e-05
ERROR CostFunction-> Number of Effective Walkers is too small 1.0085606234e+00 NumWalkersEff/NumSamples 1.9698449676e-05
ERROR CostFunction-> Number of Effective Walkers is too small 1.0005974382e+00 NumWalkersEff/NumSamples 1.9542918714e-05
  Failed Step. Largest LM parameter change:1.0338963855e+02
ERROR   Using XS:2.0000000000e+00 4 0
  Good Step. Largest LM parameter change:6.8302066076e-01
 OldCost: -1.6376399867e+01 NewCost: -1.6384131990e+01 Delta Cost:-7.7321232930e-03
      Current ene:     -1.7255875236e+01
      Current var:     1.7898968672e-01
      Current ene_urw:     -1.7251876200e+01
      Current var_urw: 1.8477483094e-01
Setting new Parameters
ERROR   Execution time = 1.4407929381e+01
  </log>
  <optVariables href="jopt-h2o.s002.opt.xml">
CSFcoeff_1 -1.7896905476e-02 3 1  ON 0
CSFcoeff_2 3.3597406891e-02 3 1  ON 1
CSFcoeff_3 -1.9133513849e-02 3 1  ON 2
CSFcoeff_4 -1.9498348479e-02 3 1  ON 3
CSFcoeff_5 -1.3742353789e-02 3 1  ON 4
CSFcoeff_6 2.2356449951e-02 3 1  ON 5
CSFcoeff_7 -1.0712030650e-02 3 1  ON 6
CSFcoeff_8 1.2371165375e-02 3 1  ON 7
CSFcoeff_9 1.3810652739e-02 3 1  ON 8
CSFcoeff_10 -1.3331319865e-02 3 1  ON 9
CSFcoeff_11 -1.2314670716e-02 3 1  ON 10
CSFcoeff_12 -1.3223700195e-02 3 1  ON 11
CSFcoeff_13 -1.1930878185e-02 3 1  ON 12
CSFcoeff_14 -1.4688356428e-02 3 1  ON 13
CSFcoeff_15 8.0899381942e-03 3 1  ON 14
CSFcoeff_16 -1.5943370852e-02 3 1  ON 15
CSFcoeff_17 -1.1221856821e-02 3 1  ON 16
CSFcoeff_18 -1.1417025278e-02 3 1  ON 17
CSFcoeff_19 9.3832023090e-03 3 1  ON 18
CSFcoeff_20 1.0013949939e-02 3 1  ON 19
CSFcoeff_21 1.0293703904e-02 3 1  ON 20
CSFcoeff_22 -1.2802073410e-02 3 1  ON 21
CSFcoeff_23 -1.1713300935e-02 3 1  ON 22
CSFcoeff_24 9.2097158339e-03 3 1  ON 23
CSFcoeff_25 1.0827015196e-02 3 1  ON 24
CSFcoeff_26 -1.2575712423e-02 3 1  ON 25
CSFcoeff_27 1.2854017045e-02 3 1  ON 26
CSFcoeff_28 1.3807046866e-02 3 1  ON 27
CSFcoeff_29 -4.5326333177e-03 3 1  ON 28
CSFcoeff_30 1.0763499248e-02 3 1  ON 29
CSFcoeff_31 6.7943163240e-03 3 1  ON 30
CSFcoeff_32 -8.1827060376e-03 3 1  ON 31
CSFcoeff_33 -8.3397519558e-03 3 1  ON 32
CSFcoeff_34 4.9572535336e-03 3 1  ON 33
CSFcoeff_35 1.0107299517e-02 3 1  ON 34
CSFcoeff_36 -1.3831282129e-02 3 1  ON 35
CSFcoeff_37 -8.1920073934e-03 3 1  ON 36
CSFcoeff_38 -5.4350423837e-03 3 1  ON 37
CSFcoeff_39 1.0575232036e-02 3 1  ON 38
CSFcoeff_40 1.3157361305e-02 3 1  ON 39
CSFcoeff_41 -7.7504896377e-03 3 1  ON 40
CSFcoeff_42 -4.5491212190e-03 3 1  ON 41
CSFcoeff_43 1.2096408252e-02 3 1  ON 42
CSFcoeff_44 6.7965530869e-03 3 1  ON 43
CSFcoeff_45 1.0153343386e-02 3 1  ON 44
CSFcoeff_46 -3.9151605691e-03 3 1  ON 45
CSFcoeff_47 7.9026578468e-03 3 1  ON 46
CSFcoeff_48 -6.5700627751e-03 3 1  ON 47
CSFcoeff_49 9.9686637397e-03 3 1  ON 48
CSFcoeff_50 -1.2061537559e-02 3 1  ON 49
CSFcoeff_51 6.0518793103e-03 3 1  ON 50
CSFcoeff_52 -6.5176092310e-03 3 1  ON 51
CSFcoeff_53 8.8989319153e-03 3 1  ON 52
CSFcoeff_54 -6.7655822561e-03 3 1  ON 53
CSFcoeff_55 1.1712457841e-02 3 1  ON 54
CSFcoeff_56 6.9232914499e-03 3 1  ON 55
CSFcoeff_57 -9.3625899932e-03 3 1  ON 56
CSFcoeff_58 -8.1519408991e-03 3 1  ON 57
CSFcoeff_59 7.3796046815e-03 3 1  ON 58
CSFcoeff_60 1.4364374758e-02 3 1  ON 59
CSFcoeff_61 -1.2079777367e-02 3 1  ON 60
CSFcoeff_62 -4.9975675257e-03 3 1  ON 61
CSFcoeff_63 6.7235540756e-03 3 1  ON 62
CSFcoeff_64 -8.6750784611e-03 3 1  ON 63
CSFcoeff_65 5.4262665390e-03 3 1  ON 64
CSFcoeff_66 6.6504793189e-03 3 1  ON 65
CSFcoeff_67 -6.0811388182e-03 3 1  ON 66
CSFcoeff_68 8.3214273496e-03 3 1  ON 67
CSFcoeff_69 -8.3364997521e-03 3 1  ON 68
CSFcoeff_70 -4.6678108099e-03 3 1  ON 69
CSFcoeff_71 -6.8953893930e-03 3 1  ON 70
CSFcoeff_72 5.0365376091e-03 3 1  ON 71
CSFcoeff_73 -9.6655816221e-03 3 1  ON 72
CSFcoeff_74 -7.5568377257e-03 3 1  ON 73
CSFcoeff_75 -6.3220250764e-03 3 1  ON 74
CSFcoeff_76 -7.6994934010e-03 3 1  ON 75
CSFcoeff_77 -5.4592646964e-03 3 1  ON 76
CSFcoeff_78 -9.8289187877e-03 3 1  ON 77
CSFcoeff_79 8.6316810683e-03 3 1  ON 78
CSFcoeff_80 6.2123909433e-03 3 1  ON 79
CSFcoeff_81 6.9024513156e-03 3 1  ON 80
CSFcoeff_82 1.4159644640e-03 3 1  ON 81
CSFcoeff_83 -6.5257909561e-03 3 1  ON 82
CSFcoeff_84 -5.3707546977e-03 3 1  ON 83
CSFcoeff_85 6.8906237498e-03 3 1  ON 84
CSFcoeff_86 -7.4030041073e-03 3 1  ON 85
CSFcoeff_87 8.6755575483e-03 3 1  ON 86
CSFcoeff_88 -7.5812563390e-03 3 1  ON 87
CSFcoeff_89 -9.0768117640e-03 3 1  ON 88
CSFcoeff_90 6.9784772625e-03 3 1  ON 89
CSFcoeff_91 -8.8027117812e-03 3 1  ON 90
CSFcoeff_92 8.2414979079e-03 3 1  ON 91
CSFcoeff_93 2.7810376535e-03 3 1  ON 92
CSFcoeff_94 9.3577351819e-03 3 1  ON 93
CSFcoeff_95 6.0131926651e-03 3 1  ON 94
CSFcoeff_96 6.7204936624e-03 3 1  ON 95
CSFcoeff_97 5.5757566798e-03 3 1  ON 96
CSFcoeff_98 7.4658795390e-03 3 1  ON 97
CSFcoeff_99 -6.3111658925e-03 3 1  ON 98
CSFcoeff_100 1.4554324114e-02 3 1  ON 99
CSFcoeff_101 -3.9054765707e-03 3 1  ON 100
CSFcoeff_102 -6.1578594599e-03 3 1  ON 101
CSFcoeff_103 6.1067651537e-03 3 1  ON 102
CSFcoeff_104 7.3698049682e-03 3 1  ON 103
CSFcoeff_105 5.7520554298e-03 3 1  ON 104
CSFcoeff_106 8.2201198730e-03 3 1  ON 105
CSFcoeff_107 -5.9682024935e-03 3 1  ON 106
CSFcoeff_108 3.4797313015e-03 3 1  ON 107
CSFcoeff_109 -5.4751324056e-03 3 1  ON 108
CSFcoeff_110 6.6691717778e-03 3 1  ON 109
CSFcoeff_111 -4.8986900959e-03 3 1  ON 110
CSFcoeff_112 -4.8202617196e-03 3 1  ON 111
CSFcoeff_113 -9.1440812444e-03 3 1  ON 112
CSFcoeff_114 -7.1203092116e-03 3 1  ON 113
CSFcoeff_115 6.5149669222e-03 3 1  ON 114
CSFcoeff_116 -5.9341685639e-03 3 1  ON 115
CSFcoeff_117 -1.9213806437e-03 3 1  ON 116
CSFcoeff_118 -3.1509434067e-03 3 1  ON 117
CSFcoeff_119 2.9640458179e-03 3 1  ON 118
CSFcoeff_120 -5.1378425443e-03 3 1  ON 119
CSFcoeff_121 -9.9149373100e-03 3 1  ON 120
CSFcoeff_122 4.4754414480e-03 3 1  ON 121
CSFcoeff_123 8.2832308422e-03 3 1  ON 122
CSFcoeff_124 4.5883778671e-03 3 1  ON 123
CSFcoeff_125 -4.9122755387e-03 3 1  ON 124
CSFcoeff_126 6.2181020062e-03 3 1  ON 125
CSFcoeff_127 4.3506274705e-03 3 1  ON 126
CSFcoeff_128 -7.6264095998e-03 3 1  ON 127
CSFcoeff_129 -8.5182957267e-03 3 1  ON 128
CSFcoeff_130 -4.2325687734e-03 3 1  ON 129
CSFcoeff_131 -6.9322472764e-03 3 1  ON 130
CSFcoeff_132 -9.4839522947e-03 3 1  ON 131
CSFcoeff_133 -9.2408051749e-03 3 1  ON 132
CSFcoeff_134 -1.4406835540e-02 3 1  ON 133
CSFcoeff_135 -4.6891205343e-03 3 1  ON 134
CSFcoeff_136 -5.6506842599e-03 3 1  ON 135
CSFcoeff_137 -5.2121851653e-03 3 1  ON 136
CSFcoeff_138 2.7763764988e-03 3 1  ON 137
CSFcoeff_139 -2.7787659165e-03 3 1  ON 138
CSFcoeff_140 3.2292435252e-03 3 1  ON 139
CSFcoeff_141 3.8745021112e-03 3 1  ON 140
CSFcoeff_142 -8.4427303062e-03 3 1  ON 141
CSFcoeff_143 4.8717929107e-03 3 1  ON 142
CSFcoeff_144 -4.0805189507e-03 3 1  ON 143
CSFcoeff_145 -3.9839477093e-03 3 1  ON 144
CSFcoeff_146 -6.5047618325e-03 3 1  ON 145
[...]
   Loading configuration from MCWalkerConfiguration::SampleStack 
    number of walkers before load 1
  Using Nonlocal PP in Opt: NonLocalECP
    number of walkers after load: 160 
Using buffers for temporary storage in QMCCostFunction.

Memory usage: 
Linear method (approx matrix usage: 4*N^2): 4.5481280000e+00 MB
Deriv,HDerivRecord:      1.4476800000e+00 MB
Buffer memory cost:     MB/walker       MB/total 
Orbitals only:           2.1120000000e-03      3.3792000000e-01
Orbitals + dervs:        1.0560000000e-02      1.6896000000e+00
Inverse:                 2.5600000000e-04      4.0960000000e-02
Determinants:            4.1344000000e-02      6.6150400000e+00
  VMC Eavg = -4.2840910708e+00
  VMC Evar = 9.1089029042e+02
  Total weights = 5.1200000000e+04
  Execution time = 5.8115805300e-01
  </log>
</opt>
<opt stage="main" walkers="51200">
  <log>
Iteration: 1/1
od_largest 1.2589418391e+08
  stabilityBase -6.0000000000e+00
  stabilizerScale 2.0000000000e+00
  Using XS:-6.0000000000e+00 0 0
ERROR CostFunction-> Number of Effective Walkers is too small 1.0000000000e+00 NumWalkersEff/NumSamples 1.9531250000e-05
ERROR CostFunction-> Number of Effective Walkers is too small 1.8013914614e+01 NumWalkersEff/NumSamples 3.5183426980e-04
ERROR CostFunction-> Number of Effective Walkers is too small 1.0000000000e+00 NumWalkersEff/NumSamples 1.9531250000e-05
ERROR CostFunction-> Number of Effective Walkers is too small 1.0000000000e+00 NumWalkersEff/NumSamples 1.9531250000e-05
ERROR CostFunction-> Number of Effective Walkers is too small 1.0000000000e+00 NumWalkersEff/NumSamples 1.9531250000e-05
ERROR CostFunction-> Number of Effective Walkers is too small 1.0000000000e+00 NumWalkersEff/NumSamples 1.9531250000e-05
  Failed Step. Largest LM parameter change:2.0795509945e+02
ERROR   Using XS:-4.0000000000e+00 1 0
ERROR CostFunction-> Number of Effective Walkers is too small 1.0000000000e+00 NumWalkersEff/NumSamples 1.9531250000e-05
ERROR CostFunction-> Number of Effective Walkers is too small 1.8005370017e+01 NumWalkersEff/NumSamples 3.5166738314e-04
ERROR CostFunction-> Number of Effective Walkers is too small 1.0000000000e+00 NumWalkersEff/NumSamples 1.9531250000e-05
ERROR CostFunction-> Number of Effective Walkers is too small 1.0000000000e+00 NumWalkersEff/NumSamples 1.9531250000e-05
ERROR CostFunction-> Number of Effective Walkers is too small 1.0000000000e+00 NumWalkersEff/NumSamples 1.9531250000e-05
ERROR CostFunction-> Number of Effective Walkers is too small 1.0000000000e+00 NumWalkersEff/NumSamples 1.9531250000e-05
  Failed Step. Largest LM parameter change:2.0798251600e+02
ERROR   Using XS:-2.0000000000e+00 2 0
ERROR CostFunction-> Number of Effective Walkers is too small 1.0000000000e+00 NumWalkersEff/NumSamples 1.9531250000e-05
ERROR CostFunction-> Number of Effective Walkers is too small 1.7936164548e+01 NumWalkersEff/NumSamples 3.5031571382e-04
ERROR CostFunction-> Number of Effective Walkers is too small 1.0000000000e+00 NumWalkersEff/NumSamples 1.9531250000e-05
ERROR CostFunction-> Number of Effective Walkers is too small 1.0000000000e+00 NumWalkersEff/NumSamples 1.9531250000e-05
ERROR CostFunction-> Number of Effective Walkers is too small 1.0000000000e+00 NumWalkersEff/NumSamples 1.9531250000e-05
ERROR CostFunction-> Number of Effective Walkers is too small 1.0000000000e+00 NumWalkersEff/NumSamples 1.9531250000e-05
  Failed Step. Largest LM parameter change:2.0820534724e+02
ERROR   Using XS:0.0000000000e+00 3 0
ERROR CostFunction-> Number of Effective Walkers is too small 1.1286708072e+00 NumWalkersEff/NumSamples 2.2044351702e-05
ERROR CostFunction-> Number of Effective Walkers is too small 1.0610156074e+00 NumWalkersEff/NumSamples 2.0722961081e-05
ERROR CostFunction-> Number of Effective Walkers is too small 1.0000231956e+00 NumWalkersEff/NumSamples 1.9531703039e-05
ERROR CostFunction-> Number of Effective Walkers is too small 1.0000005245e+00 NumWalkersEff/NumSamples 1.9531260245e-05
ERROR CostFunction-> Number of Effective Walkers is too small 1.0001527851e+00 NumWalkersEff/NumSamples 1.9534234085e-05
ERROR CostFunction-> Number of Effective Walkers is too small 1.0000231956e+00 NumWalkersEff/NumSamples 1.9531703039e-05
  Failed Step. Largest LM parameter change:1.0384290985e+02
ERROR   Using XS:2.0000000000e+00 4 0
  Good Step. Largest LM parameter change:3.0168209122e+00
 OldCost: -1.6384264762e+01 NewCost: -1.6386263721e+01 Delta Cost:-1.9989592504e-03
      Current ene:     -1.7258076130e+01
      Current var:     1.7817203521e-01
      Current ene_urw:     -1.7256801468e+01
      Current var_urw: 2.0177765853e-01
Setting new Parameters
ERROR   Execution time = 1.4364746088e+01
  </log>
  <optVariables href="jopt-h2o.s009.opt.xml">
CSFcoeff_1 -1.4795090141e-02 3 1  ON 0
CSFcoeff_2 3.9064557930e-02 3 1  ON 1
CSFcoeff_3 -1.3470375127e-02 3 1  ON 2
CSFcoeff_4 -1.5164157871e-02 3 1  ON 3
CSFcoeff_5 -1.2089455205e-02 3 1  ON 4
CSFcoeff_6 1.1986097886e-02 3 1  ON 5
CSFcoeff_7 -8.4680998607e-03 3 1  ON 6
CSFcoeff_8 1.2448732102e-02 3 1  ON 7
CSFcoeff_9 1.1162947615e-02 3 1  ON 8
CSFcoeff_10 -8.9098294726e-03 3 1  ON 9
CSFcoeff_11 -6.0537946882e-03 3 1  ON 10
CSFcoeff_12 -1.3643306506e-02 3 1  ON 11
CSFcoeff_13 -1.3101566562e-02 3 1  ON 12
CSFcoeff_14 -1.4490804136e-02 3 1  ON 13
CSFcoeff_15 9.7080443418e-03 3 1  ON 14
CSFcoeff_16 -1.3758444168e-02 3 1  ON 15
CSFcoeff_17 -1.1282365174e-02 3 1  ON 16
CSFcoeff_18 -9.2296634075e-03 3 1  ON 17
CSFcoeff_19 6.5770134959e-03 3 1  ON 18
CSFcoeff_20 7.3306119560e-03 3 1  ON 19
CSFcoeff_21 1.1192617850e-02 3 1  ON 20
CSFcoeff_22 -1.1256842940e-02 3 1  ON 21
CSFcoeff_23 -8.9846769378e-03 3 1  ON 22
CSFcoeff_24 6.3771886273e-03 3 1  ON 23
CSFcoeff_25 1.1051433856e-02 3 1  ON 24
CSFcoeff_26 -9.0938674815e-03 3 1  ON 25
CSFcoeff_27 9.8391473116e-03 3 1  ON 26
CSFcoeff_28 8.7157071812e-03 3 1  ON 27
CSFcoeff_29 -1.0589815747e-03 3 1  ON 28
CSFcoeff_30 1.3517908988e-02 3 1  ON 29
CSFcoeff_31 1.4255152865e-02 3 1  ON 30
CSFcoeff_32 -6.3985088980e-03 3 1  ON 31
CSFcoeff_33 -1.0368840872e-02 3 1  ON 32
CSFcoeff_34 3.3646991526e-03 3 1  ON 33
CSFcoeff_35 7.6731392666e-03 3 1  ON 34
CSFcoeff_36 -1.6870331789e-02 3 1  ON 35
CSFcoeff_37 -7.5722278610e-03 3 1  ON 36
CSFcoeff_38 -4.4388206472e-03 3 1  ON 37
CSFcoeff_39 5.7161117432e-03 3 1  ON 38
CSFcoeff_40 1.0006507810e-02 3 1  ON 39
CSFcoeff_41 -3.9958246548e-03 3 1  ON 40
CSFcoeff_42 -2.0969779024e-03 3 1  ON 41
CSFcoeff_43 8.7752989164e-03 3 1  ON 42
CSFcoeff_44 2.9841945357e-03 3 1  ON 43
CSFcoeff_45 5.0057476348e-03 3 1  ON 44
CSFcoeff_46 -5.8251878126e-04 3 1  ON 45
CSFcoeff_47 5.3223071365e-03 3 1  ON 46
CSFcoeff_48 -4.0907597259e-03 3 1  ON 47
CSFcoeff_49 5.0796239365e-03 3 1  ON 48
CSFcoeff_50 -1.2172614978e-02 3 1  ON 49
CSFcoeff_51 5.0801176823e-03 3 1  ON 50
CSFcoeff_52 -3.2316307936e-03 3 1  ON 51
CSFcoeff_53 9.3791112336e-03 3 1  ON 52
CSFcoeff_54 -7.7146057267e-03 3 1  ON 53
CSFcoeff_55 5.3620077382e-03 3 1  ON 54
CSFcoeff_56 6.1443279450e-03 3 1  ON 55
CSFcoeff_57 -1.0867365646e-02 3 1  ON 56
CSFcoeff_58 -3.6482934752e-03 3 1  ON 57
CSFcoeff_59 3.9522380368e-03 3 1  ON 58
CSFcoeff_60 1.9912876212e-02 3 1  ON 59
CSFcoeff_61 -7.0067523631e-03 3 1  ON 60
CSFcoeff_62 -3.8020127408e-03 3 1  ON 61
CSFcoeff_63 3.8016643777e-03 3 1  ON 62
CSFcoeff_64 -6.4099245632e-03 3 1  ON 63
CSFcoeff_65 4.4446204033e-03 3 1  ON 64
CSFcoeff_66 5.8419086805e-03 3 1  ON 65
CSFcoeff_67 -1.1101913127e-02 3 1  ON 66
CSFcoeff_68 6.7353757270e-03 3 1  ON 67
CSFcoeff_69 -7.1485047008e-03 3 1  ON 68
CSFcoeff_70 -4.4496389037e-03 3 1  ON 69
CSFcoeff_71 -2.5828231805e-03 3 1  ON 70
CSFcoeff_72 3.8852347969e-03 3 1  ON 71
CSFcoeff_73 -7.9856459776e-03 3 1  ON 72
CSFcoeff_74 -9.5507571647e-03 3 1  ON 73
CSFcoeff_75 -5.3714284959e-03 3 1  ON 74
CSFcoeff_76 -6.8876877610e-03 3 1  ON 75
CSFcoeff_77 -4.0601816851e-03 3 1  ON 76
CSFcoeff_78 -7.1901480527e-03 3 1  ON 77
CSFcoeff_79 5.2506826844e-03 3 1  ON 78
CSFcoeff_80 4.1348473402e-03 3 1  ON 79
CSFcoeff_81 5.2851922070e-03 3 1  ON 80
CSFcoeff_82 8.6513169222e-04 3 1  ON 81
CSFcoeff_83 -6.0522505945e-03 3 1  ON 82
CSFcoeff_84 -6.8262866541e-03 3 1  ON 83
CSFcoeff_85 5.0400874241e-03 3 1  ON 84
CSFcoeff_86 -6.2978915838e-03 3 1  ON 85
CSFcoeff_87 4.1920398913e-03 3 1  ON 86
CSFcoeff_88 -3.9184632059e-03 3 1  ON 87
CSFcoeff_89 -8.1098356205e-04 3 1  ON 88
CSFcoeff_90 4.6943496548e-03 3 1  ON 89
CSFcoeff_91 -4.7683203267e-03 3 1  ON 90
CSFcoeff_92 6.6108666789e-03 3 1  ON 91
CSFcoeff_93 1.2987838711e-03 3 1  ON 92
CSFcoeff_94 5.4030917716e-03 3 1  ON 93
CSFcoeff_95 4.5267340932e-03 3 1  ON 94
CSFcoeff_96 1.0966942531e-02 3 1  ON 95
CSFcoeff_97 5.1232864858e-03 3 1  ON 96
CSFcoeff_98 7.4452842809e-03 3 1  ON 97
CSFcoeff_99 -6.4939541098e-03 3 1  ON 98
CSFcoeff_100 2.3344998465e-02 3 1  ON 99
CSFcoeff_101 -2.9256364779e-03 3 1  ON 100
CSFcoeff_102 -7.1648860800e-03 3 1  ON 101
CSFcoeff_103 5.9911289542e-03 3 1  ON 102
CSFcoeff_104 2.6337938746e-03 3 1  ON 103
CSFcoeff_105 5.3869263602e-03 3 1  ON 104
CSFcoeff_106 3.7173368102e-03 3 1  ON 105
CSFcoeff_107 -4.4692774459e-03 3 1  ON 106
CSFcoeff_108 3.6282483619e-03 3 1  ON 107
CSFcoeff_109 -1.6016081247e-03 3 1  ON 108
CSFcoeff_110 2.1309351445e-03 3 1  ON 109
CSFcoeff_111 -5.8306032478e-03 3 1  ON 110
CSFcoeff_112 -2.4056235341e-03 3 1  ON 111
CSFcoeff_113 -6.4805875504e-03 3 1  ON 112
CSFcoeff_114 -6.5108280757e-03 3 1  ON 113
CSFcoeff_115 1.1748820119e-02 3 1  ON 114
CSFcoeff_116 -8.1385078762e-03 3 1  ON 115
CSFcoeff_117 1.8731486778e-03 3 1  ON 116
CSFcoeff_118 -3.8840815422e-03 3 1  ON 117
CSFcoeff_119 4.4213929288e-05 3 1  ON 118
CSFcoeff_120 -7.0177666146e-03 3 1  ON 119
CSFcoeff_121 -1.9612716229e-02 3 1  ON 120
CSFcoeff_122 4.9059395316e-03 3 1  ON 121
CSFcoeff_123 3.0218043349e-03 3 1  ON 122
CSFcoeff_124 3.8934232454e-03 3 1  ON 123
CSFcoeff_125 -1.8442601096e-03 3 1  ON 124
CSFcoeff_126 4.3551260237e-03 3 1  ON 125
CSFcoeff_127 3.4540704911e-03 3 1  ON 126
CSFcoeff_128 -9.0251461758e-03 3 1  ON 127
CSFcoeff_129 -6.9632030140e-03 3 1  ON 128
CSFcoeff_130 -4.9891995015e-03 3 1  ON 129
CSFcoeff_131 -6.7045433952e-03 3 1  ON 130
CSFcoeff_132 -3.0672923777e-03 3 1  ON 131
CSFcoeff_133 -7.2714485160e-03 3 1  ON 132
CSFcoeff_134 -1.5437138760e-02 3 1  ON 133
CSFcoeff_135 -4.2685698913e-03 3 1  ON 134
CSFcoeff_136 -4.4404465872e-03 3 1  ON 135
CSFcoeff_137 -3.6902567175e-03 3 1  ON 136
CSFcoeff_138 1.8516606407e-02 3 1  ON 137
CSFcoeff_139 -4.1953294063e-03 3 1  ON 138
CSFcoeff_140 3.0374306870e-03 3 1  ON 139
CSFcoeff_141 4.9394941752e-03 3 1  ON 140
CSFcoeff_142 -9.7162483103e-03 3 1  ON 141
CSFcoeff_143 5.3626998765e-03 3 1  ON 142
CSFcoeff_144 -7.5872264389e-04 3 1  ON 143
CSFcoeff_145 -7.4923743673e-04 3 1  ON 144
CSFcoeff_146 -7.4690908615e-03 3 1  ON 145
CSFcoeff_147 5.7007389129e-03 3 1  ON 146
CSFcoeff_148 -7.0461737640e-03 3 1  ON 147
CSFcoeff_149 6.3543702008e-03 3 1  ON 148
CSFcoeff_150 4.3985819212e-03 3 1  ON 149
CSFcoeff_151 6.2972944064e-03 3 1  ON 150
CSFcoeff_152 3.3372210013e-03 3 1  ON 151
CSFcoeff_153 -6.4425852658e-03 3 1  ON 152
CSFcoeff_154 -5.1810681015e-03 3 1  ON 153
CSFcoeff_155 -5.1802564349e-03 3 1  ON 154
CSFcoeff_156 8.7216661724e-04 3 1  ON 155
CSFcoeff_157 -7.9545731416e-03 3 1  ON 156
CSFcoeff_158 5.8808191748e-03 3 1  ON 157
CSFcoeff_159 -1.6798445066e-03 3 1  ON 158
CSFcoeff_160 2.8118144969e-03 3 1  ON 159
CSFcoeff_161 1.6653328432e-03 3 1  ON 160
CSFcoeff_162 2.9834937973e-03 3 1  ON 161
CSFcoeff_163 5.2600672432e-03 3 1  ON 162
CSFcoeff_164 5.0469751701e-03 3 1  ON 163
CSFcoeff_165 -5.9791552964e-03 3 1  ON 164
CSFcoeff_166 4.5085363980e-03 3 1  ON 165
CSFcoeff_167 5.7535645471e-03 3 1  ON 166
CSFcoeff_168 5.0557097262e-03 3 1  ON 167
CSFcoeff_169 -4.3304806180e-03 3 1  ON 168
CSFcoeff_170 -1.9704465913e-04 3 1  ON 169
CSFcoeff_171 -5.0049114706e-03 3 1  ON 170
CSFcoeff_172 2.5791541451e-03 3 1  ON 171
CSFcoeff_173 1.4750960994e-03 3 1  ON 172
CSFcoeff_174 -4.6908280703e-03 3 1  ON 173
CSFcoeff_175 -2.1238283725e-03 3 1  ON 174
CSFcoeff_176 2.0942935085e-03 3 1  ON 175
CSFcoeff_177 4.9849222586e-03 3 1  ON 176
CSFcoeff_178 4.0053405197e-03 3 1  ON 177
CSFcoeff_179 -6.3121886124e-03 3 1  ON 178
CSFcoeff_180 -4.5848257459e-03 3 1  ON 179
CSFcoeff_181 -7.9096216401e-04 3 1  ON 180
CSFcoeff_182 -4.2436516185e-03 3 1  ON 181
CSFcoeff_183 1.9527011437e-03 3 1  ON 182
CSFcoeff_184 -3.9948877424e-03 3 1  ON 183
CSFcoeff_185 7.1960255139e-03 3 1  ON 184
CSFcoeff_186 3.3758531215e-03 3 1  ON 185
CSFcoeff_187 4.2232146827e-04 3 1  ON 186
CSFcoeff_188 1.0120055241e-03 3 1  ON 187
CSFcoeff_189 -9.8008153038e-03 3 1  ON 188
CSFcoeff_190 -4.8700311827e-03 3 1  ON 189
CSFcoeff_191 2.1592877739e-03 3 1  ON 190
CSFcoeff_192 -7.7555417721e-03 3 1  ON 191
CSFcoeff_193 -3.8621962922e-03 3 1  ON 192
CSFcoeff_194 -5.3143623171e-03 3 1  ON 193
CSFcoeff_195 -1.0016933922e-02 3 1  ON 194
CSFcoeff_196 1.3217209731e-03 3 1  ON 195
CSFcoeff_197 -7.0960675938e-03 3 1  ON 196
CSFcoeff_198 -5.3462926994e-04 3 1  ON 197
CSFcoeff_199 -3.0433181780e-04 3 1  ON 198
CSFcoeff_200 -3.1867327910e-03 3 1  ON 199
CSFcoeff_201 -2.3521218021e-03 3 1  ON 200
CSFcoeff_202 1.1050528089e-02 3 1  ON 201
CSFcoeff_203 4.3524021940e-04 3 1  ON 202
CSFcoeff_204 -5.9209638641e-04 3 1  ON 203
CSFcoeff_205 4.7255043011e-03 3 1  ON 204
CSFcoeff_206 -4.9647814761e-03 3 1  ON 205
CSFcoeff_207 -3.2110995161e-03 3 1  ON 206
CSFcoeff_208 -2.3125846714e-03 3 1  ON 207
CSFcoeff_209 2.8777622835e-03 3 1  ON 208
CSFcoeff_210 -1.5171743224e-03 3 1  ON 209
CSFcoeff_211 -3.6709730605e-03 3 1  ON 210
CSFcoeff_212 -4.7564778488e-03 3 1  ON 211
CSFcoeff_213 -7.9121819306e-03 3 1  ON 212
CSFcoeff_214 -2.7750483835e-03 3 1  ON 213
CSFcoeff_215 -2.2273129805e-04 3 1  ON 214
CSFcoeff_216 -2.0119009813e-03 3 1  ON 215
CSFcoeff_217 -3.9273297017e-03 3 1  ON 216
CSFcoeff_218 -4.4470701151e-03 3 1  ON 217
CSFcoeff_219 -1.4098756468e-03 3 1  ON 218
CSFcoeff_220 4.3778317418e-03 3 1  ON 219
CSFcoeff_221 -8.2174944574e-04 3 1  ON 220
CSFcoeff_222 -8.2019627514e-03 3 1  ON 221
CSFcoeff_223 -4.0911544660e-03 3 1  ON 222
CSFcoeff_224 -2.0509380907e-03 3 1  ON 223
CSFcoeff_225 -3.9632117351e-03 3 1  ON 224
CSFcoeff_226 7.8394229773e-04 3 1  ON 225
CSFcoeff_227 -6.6305454241e-04 3 1  ON 226
CSFcoeff_228 -1.0313429599e-02 3 1  ON 227
CSFcoeff_229 -3.3330721339e-03 3 1  ON 228
CSFcoeff_230 -1.5667621256e-03 3 1  ON 229
CSFcoeff_231 -6.4685290825e-03 3 1  ON 230
CSFcoeff_232 -2.5145471227e-03 3 1  ON 231
CSFcoeff_233 -4.9498713879e-03 3 1  ON 232
uu_0 7.1135667786e-01 1 1  ON 233
uu_1 5.5941109018e-01 1 1  ON 234
uu_2 4.6570296488e-01 1 1  ON 235
uu_3 3.9908081691e-01 1 1  ON 236
uu_4 3.4935158766e-01 1 1  ON 237
uu_5 3.0878363164e-01 1 1  ON 238
uu_6 2.9643544149e-01 1 1  ON 239
uu_7 2.8972847490e-01 1 1  ON 240
uu_8 2.6874808110e-01 1 1  ON 241
uu_9 3.5729708991e-01 1 1  ON 242
ud_0 3.5800997754e-01 1 1  ON 243
ud_1 6.5836603023e-02 1 1  ON 244
ud_2 -8.1049137040e-02 1 1  ON 245
ud_3 -1.4765816630e-01 1 1  ON 246
ud_4 -1.8117677348e-01 1 1  ON 247
ud_5 -2.0604654149e-01 1 1  ON 248
ud_6 -2.2925587886e-01 1 1  ON 249
ud_7 -2.7535861859e-01 1 1  ON 250
ud_8 -2.7787499218e-01 1 1  ON 251
ud_9 -3.0974432907e-01 1 1  ON 252
eO_0 -6.6781237778e+00 1 1  ON 253
eO_1 -6.2266722067e+00 1 1  ON 254
eO_2 -5.3514311788e+00 1 1  ON 255
eO_3 -4.5111675342e+00 1 1  ON 256
eO_4 -3.7535624275e+00 1 1  ON 257
eO_5 -3.0411658366e+00 1 1  ON 258
eO_6 -2.9587412112e+00 1 1  ON 259
eO_7 -2.7418103391e+00 1 1  ON 260
eO_8 -2.9128962999e+00 1 1  ON 261
eO_9 4.6122640562e-02 1 1  ON 262
eH_0 1.9704985035e+00 1 1  ON 263
eH_1 2.0388161620e+00 1 1  ON 264
eH_2 2.0587556733e+00 1 1  ON 265
eH_3 2.1293594016e+00 1 1  ON 266
eH_4 2.2380797352e+00 1 1  ON 267
eH_5 2.3109903819e+00 1 1  ON 268
eH_6 2.2668420102e+00 1 1  ON 269
eH_7 2.2625980778e+00 1 1  ON 270
eH_8 2.2677879434e+00 1 1  ON 271
eH_9 2.6606270569e+00 1 1  ON 272
uuO_0 9.7942631188e-06 1 1  ON 273
uuO_1 -4.9351675532e-06 1 1  ON 274
uuO_2 -1.5402473357e-05 1 1  ON 275
uuO_3 -1.3048808541e-05 1 1  ON 276
uuO_4 -1.1031636934e-06 1 1  ON 277
uuO_5 7.5037062949e-06 1 1  ON 278
uuO_6 -3.3753548138e-05 1 1  ON 279
uuO_7 8.4595760679e-07 1 1  ON 280
uuO_8 2.7449043552e-06 1 1  ON 281
uuO_9 2.0855300200e-05 1 1  ON 282
uuO_10 -9.7690168875e-06 1 1  ON 283
uuO_11 5.7263778765e-06 1 1  ON 284
uuO_12 -3.6287396008e-06 1 1  ON 285
uuO_13 1.1633998968e-05 1 1  ON 286
uuO_14 4.0941364410e-06 1 1  ON 287
uuO_15 -1.3592298852e-08 1 1  ON 288
uuO_16 -2.2798036497e-05 1 1  ON 289
uuO_17 2.1022972051e-05 1 1  ON 290
uuO_18 -1.6978211077e-06 1 1  ON 291
uuO_19 1.3641243082e-06 1 1  ON 292
uuO_20 -1.6989074035e-06 1 1  ON 293
uuO_21 -1.9976365687e-06 1 1  ON 294
uuO_22 2.6110119756e-07 1 1  ON 295
uuO_23 1.9223679195e-06 1 1  ON 296
uuO_24 4.6838292211e-07 1 1  ON 297
uuO_25 -1.3150354520e-07 1 1  ON 298
udO_0 3.5766868487e-06 1 1  ON 299
udO_1 2.2498821696e-05 1 1  ON 300
udO_2 1.8017143305e-05 1 1  ON 301
udO_3 -1.3452041558e-05 1 1  ON 302
udO_4 -5.0643292415e-06 1 1  ON 303
udO_5 6.5864282442e-06 1 1  ON 304
udO_6 3.8471077321e-05 1 1  ON 305
udO_7 -4.6470354964e-06 1 1  ON 306
udO_8 2.4152415570e-05 1 1  ON 307
udO_9 -2.9037677103e-05 1 1  ON 308
udO_10 -8.0453250143e-06 1 1  ON 309
udO_11 -1.5704380703e-05 1 1  ON 310
udO_12 -6.8943563177e-06 1 1  ON 311
udO_13 1.3059455391e-05 1 1  ON 312
udO_14 5.1452024544e-06 1 1  ON 313
udO_15 1.8239925896e-07 1 1  ON 314
udO_16 3.9821190603e-05 1 1  ON 315
udO_17 2.2971994997e-06 1 1  ON 316
udO_18 9.3003749291e-06 1 1  ON 317
udO_19 2.4327120856e-06 1 1  ON 318
udO_20 -9.8564071875e-06 1 1  ON 319
udO_21 -1.8233386671e-06 1 1  ON 320
udO_22 -8.2281075366e-08 1 1  ON 321
udO_23 3.0722228287e-06 1 1  ON 322
udO_24 2.9456204225e-08 1 1  ON 323
udO_25 1.2456707381e-10 1 1  ON 324
uuH_0 5.0420307833e-07 1 1  ON 325
uuH_1 -1.9479592947e-06 1 1  ON 326
uuH_2 4.4070716661e-06 1 1  ON 327
uuH_3 8.2633291754e-06 1 1  ON 328
uuH_4 2.1923632929e-06 1 1  ON 329
uuH_5 7.5588692037e-07 1 1  ON 330
uuH_6 4.4259281754e-06 1 1  ON 331
uuH_7 -1.3315923935e-06 1 1  ON 332
uuH_8 -3.9952601168e-06 1 1  ON 333
uuH_9 -7.6342710937e-06 1 1  ON 334
uuH_10 8.7983545673e-06 1 1  ON 335
uuH_11 -8.9731815017e-06 1 1  ON 336
uuH_12 3.3114061427e-06 1 1  ON 337
uuH_13 -6.9071530476e-06 1 1  ON 338
uuH_14 -3.2451259124e-06 1 1  ON 339
uuH_15 2.1614475459e-08 1 1  ON 340
uuH_16 2.6053499381e-05 1 1  ON 341
uuH_17 -2.3820325407e-05 1 1  ON 342
uuH_18 1.3738087324e-05 1 1  ON 343
uuH_19 -2.7426574019e-06 1 1  ON 344
uuH_20 -3.8911613948e-06 1 1  ON 345
uuH_21 -6.7677421339e-07 1 1  ON 346
uuH_22 2.5130121704e-07 1 1  ON 347
uuH_23 1.4629235677e-06 1 1  ON 348
uuH_24 7.7498015658e-09 1 1  ON 349
uuH_25 -2.5814599544e-08 1 1  ON 350
udH_0 -2.7508807978e-06 1 1  ON 351
udH_1 -1.5282977598e-05 1 1  ON 352
udH_2 2.2911750032e-06 1 1  ON 353
udH_3 3.6897102038e-06 1 1  ON 354
udH_4 -7.0297453275e-07 1 1  ON 355
udH_5 2.2938162504e-06 1 1  ON 356
udH_6 -1.1718363014e-05 1 1  ON 357
udH_7 2.4405276403e-06 1 1  ON 358
udH_8 1.1176287181e-06 1 1  ON 359
udH_9 8.1323174694e-06 1 1  ON 360
udH_10 1.3004833990e-06 1 1  ON 361
udH_11 -1.9418095802e-06 1 1  ON 362
udH_12 -3.6764226432e-07 1 1  ON 363
udH_13 -1.5813003765e-06 1 1  ON 364
udH_14 -3.3935784595e-07 1 1  ON 365
udH_15 1.0688477141e-07 1 1  ON 366
udH_16 -1.0036983193e-06 1 1  ON 367
udH_17 -3.6413967487e-06 1 1  ON 368
udH_18 2.0014960630e-06 1 1  ON 369
udH_19 4.5807205534e-09 1 1  ON 370
udH_20 -5.3061551614e-08 1 1  ON 371
udH_21 2.0875557184e-08 1 1  ON 372
udH_22 -3.3855733826e-08 1 1  ON 373
udH_23 2.6889236720e-07 1 1  ON 374
udH_24 -6.2561240274e-08 1 1  ON 375
udH_25 1.4342062051e-08 1 1  ON 376
  </optVariables>
   Restore the number of walkers to 1, removing 159 walkers.
</opt>
</optimization-report>
  QMC Execution time = 1.4386410468e+01 secs 
  Total Execution time = 1.5228896506e+02 secs

=========================================================
  A new xml input file : jopt-h2o.s009.cont.xml
Application 11223840 resources: utime ~48807s, stime ~222s, Rss ~42140, inblocks ~1420012, outblocks ~3303035
