Rank =    0  Free Memory = 87104 MB
  Input file(s): long-test.xml 

=====================================================
                    QMCPACK 3.7.9

       (c) Copyright 2003-  QMCPACK developers

                    Please cite:
 J. Kim et al. J. Phys. Cond. Mat. 30 195901 (2018)
      https://doi.org/10.1088/1361-648X/aab9c3

  Git branch: optimization_methods
  Last git commit: f009807d77a24792d6e3470dfa5593156c5ddec2-dirty
  Last git commit date: Wed Jul 17 23:35:19 2019 -0700
  Last git commit subject: Adjust some code formatting
=====================================================
  Global options 

  Total number of MPI ranks = 16
  Number of MPI groups      = 1
  MPI group ID              = 0
  Number of ranks in group  = 16
  MPI ranks per node        = 16
  OMP 1st level threads     = 1
  OMP nested threading disabled or only 1 thread on the 2nd level

  Precision used in this calculation, see definitions in the manual:
  Base precision      = double
  Full precision      = double

  Structure-of-arrays (SoA) optimization enabled

  Input XML = long-test.xml
Rank =    1  Free Memory = 87104 MB
Rank =    2  Free Memory = 87104 MB
Rank =    3  Free Memory = 87103 MB
Rank =    4  Free Memory = 87103 MB
Rank =    5  Free Memory = 87103 MB
Rank =    6  Free Memory = 87103 MB
Rank =    7  Free Memory = 87103 MB
Rank =    8  Free Memory = 87103 MB
Rank =    9  Free Memory = 87103 MB
Rank =   10  Free Memory = 87103 MB
Rank =   11  Free Memory = 87103 MB
Rank =   12  Free Memory = 87103 MB
Rank =   13  Free Memory = 87103 MB
Rank =   14  Free Memory = 87103 MB
Rank =   15  Free Memory = 87103 MB

  Project = H4
  date    = 2019-07-18 15:39:54 PDT
  host    = n0029.savio3

 Random Number
 -------------
  Offset for the random number seeds based on time: 314

  Range of prime numbers to use as seeds over processors and threads = 2089-2237


 Particle Set 
 ------------
  Name: ion0
  All the species have the same mass 1
  Particle set size: 4

 Particle Set 
 ------------
  Name: e
  All the species have the same mass 1
  Particle set size: 4

 Wavefunction setup: 
 ------------------- 
  Name: psi0

   Jastrow
   -------
    Name: J2   Type: Two-Body   Function: Bspline

    Radial function for species: u - u
     Number of parameters: 10
     Cusp: -0.25
     Cutoff radius: 10

     Name                        Value Type Recompute Use Index
     ---- ---------------------------- ---- --------- --- -----
     uu_0                 0.000000e+00    1         1  ON     0
     uu_1                 0.000000e+00    1         1  ON     1
     uu_2                 0.000000e+00    1         1  ON     2
     uu_3                 0.000000e+00    1         1  ON     3
     uu_4                 0.000000e+00    1         1  ON     4
     uu_5                 0.000000e+00    1         1  ON     5
     uu_6                 0.000000e+00    1         1  ON     6
     uu_7                 0.000000e+00    1         1  ON     7
     uu_8                 0.000000e+00    1         1  ON     8
     uu_9                 0.000000e+00    1         1  ON     9

    Radial function for species: u - d
     Number of parameters: 10
     Cusp: -0.5
     Cutoff radius: 10

     Name                        Value Type Recompute Use Index
     ---- ---------------------------- ---- --------- --- -----
     ud_0                 0.000000e+00    1         1  ON     0
     ud_1                 0.000000e+00    1         1  ON     1
     ud_2                 0.000000e+00    1         1  ON     2
     ud_3                 0.000000e+00    1         1  ON     3
     ud_4                 0.000000e+00    1         1  ON     4
     ud_5                 0.000000e+00    1         1  ON     5
     ud_6                 0.000000e+00    1         1  ON     6
     ud_7                 0.000000e+00    1         1  ON     7
     ud_8                 0.000000e+00    1         1  ON     8
     ud_9                 0.000000e+00    1         1  ON     9


   Jastrow
   -------
    Name: J1   Type: One-Body   Function: Bspline

    Radial function for element: H
     Number of parameters: 10
     Cusp: 0
     Cutoff radius: 10

     Name                        Value Type Recompute Use Index
     ---- ---------------------------- ---- --------- --- -----
     eH_0                 0.000000e+00    1         1  ON     0
     eH_1                 0.000000e+00    1         1  ON     1
     eH_2                 0.000000e+00    1         1  ON     2
     eH_3                 0.000000e+00    1         1  ON     3
     eH_4                 0.000000e+00    1         1  ON     4
     eH_5                 0.000000e+00    1         1  ON     5
     eH_6                 0.000000e+00    1         1  ON     6
     eH_7                 0.000000e+00    1         1  ON     7
     eH_8                 0.000000e+00    1         1  ON     8
     eH_9                 0.000000e+00    1         1  ON     9

  Created SPOSet builder named 'LCAOBSet' of type molecularorbital
  LCAO: SoaAtomicBasisSet<MultiQuintic,0>
  AO BasisSet for H
   Angular momentum expanded in cartesian functions x^lx y^ly z^lz according to Gamess
Using log grid with default values: ri = 1e-06 rf = 100 npts = 1001
   R(n,l,m,s) 0 0 0 0
   R(n,l,m,s) 1 0 0 0
   R(n,l,m,s) 2 0 0 0
   R(n,l,m,s) 3 1 0 0
   R(n,l,m,s) 4 1 0 0
   R(n,l,m,s) 5 2 0 0
Expanding Ylm (angular function) according to Gamess using cartesian gaussians
Adding 1 cartesian gaussian orbitals for l= 0
Adding 1 cartesian gaussian orbitals for l= 0
Adding 1 cartesian gaussian orbitals for l= 0
Adding 3 cartesian gaussian orbitals for l= 1
Adding 3 cartesian gaussian orbitals for l= 1
Adding 6 cartesian gaussian orbitals for l= 2
  Setting cutoff radius 11.1686

   Maximum Angular Momentum  = 2
   Number of Radial functors = 6
   Basis size                = 15

Creating SPOSet in SlaterDetBuilder::put(xmlNodePtr cur).
spo_name = spo-up
  Building SPOSet 'spo-up' with 'LCAOBSet' basis set.
Reading cusp info from : 
I/O warning : failed to load external entity ""
Could not find precomputed cusp data for spo set: spo-up
Recalculating data.
  Number of molecular orbitals to compute correction on this rank: 3
   Working on MO: 0 Center: 0
   Working on MO: 1 Center: 0
   Working on MO: 2 Center: 0
   Working on MO: 0 Center: 1
   Working on MO: 1 Center: 1
   Working on MO: 2 Center: 1
   Working on MO: 0 Center: 2
   Working on MO: 1 Center: 2
   Working on MO: 2 Center: 2
   Working on MO: 0 Center: 3
   Working on MO: 1 Center: 3
   Working on MO: 2 Center: 3
Saving resulting cusp Info xml block to: spo-up.cuspInfo.xml
Creating SPOSet in SlaterDetBuilder::put(xmlNodePtr cur).
spo_name = spo-dn
  Building SPOSet 'spo-dn' with 'LCAOBSet' basis set.
Reading cusp info from : 
I/O warning : failed to load external entity ""
Could not find precomputed cusp data for spo set: spo-dn
Recalculating data.
  Number of molecular orbitals to compute correction on this rank: 3
   Working on MO: 0 Center: 0
   Working on MO: 1 Center: 0
   Working on MO: 2 Center: 0
   Working on MO: 0 Center: 1
   Working on MO: 1 Center: 1
   Working on MO: 2 Center: 1
   Working on MO: 0 Center: 2
   Working on MO: 1 Center: 2
   Working on MO: 2 Center: 2
   Working on MO: 0 Center: 3
   Working on MO: 1 Center: 3
   Working on MO: 2 Center: 3
Saving resulting cusp Info xml block to: spo-dn.cuspInfo.xml
Using Bryan's algorithm for MultiSlaterDeterminant expansion. 
Creating base determinant (up) for MSD expansion. 
Creating base determinant (down) for MSD expansion. 
Found determinant list. 
Reading CI expansion.
Found 10 terms in the MSD expansion.
Norm of ci vector (sum of ci^2): 0.999996
Norm of qchem ci vector (sum of qchem_ci^2): 0
Found 6 unique up determinants.
Found 6 unique down determinants.
Number of terms in pairs array: 4
Number of terms in pairs array: 4
CI coefficients are optimizable. 
  Added a fermionic WaveFunctionComponent MultiSlaterDeterminantFast
  QMCHamiltonian::addOperator Kinetic to H, physical Hamiltonian 
  QMCHamiltonian::addOperator ElecElec to H, physical Hamiltonian 
QMCHamiltonian::addOperatorType added type coulomb named ElecElec
  QMCHamiltonian::addOperator IonElec to H, physical Hamiltonian 
QMCHamiltonian::addOperatorType added type coulomb named IonElec
  QMCHamiltonian::addOperator IonIon to H, physical Hamiltonian 
QMCHamiltonian::addOperatorType added type coulomb named IonIon

  QMCHamiltonian::add2WalkerProperty added
    4 to P::PropertyList 
    0 to P::Collectables 
    starting Index of the observables in P::PropertyList = 9
ParticleSetPool::randomize 
<init source="ion0" target="e">
</init>
  Initialization Execution time = 8.251 secs
=========================================================
 Summary of QMC systems 
=========================================================
ParticleSetPool has: 

  ParticleSet 'e' contains 4 particles :  u(2) d(2)

    u -1.3419179128e-01  6.3645776225e-01 -3.8507709539e-01
    u -2.5600043590e+00 -7.4761501688e+00 -3.3948343974e-01
    d  2.3424546916e+00 -1.1118940226e-01 -5.9501590468e-01
    d  3.9416999215e+00 -6.9387717537e+00 -4.0060198618e-01

  Distance table for similar particles (A-A):
    source/target: e
    Using structure-of-arrays (SoA) data layout
    Distance computations use open boundary conditions in 3D.

  Distance table for dissimilar particles (A-B):
    source: ion0  target: e
    Using structure-of-arrays (SoA) data layout
    Distance computations use open boundary conditions in 3D.


  ParticleSet 'ion0' contains 4 particles :  H(4)

    H  0.0000000000e+00  0.0000000000e+00  0.0000000000e+00
    H  1.8897259877e+00  0.0000000000e+00  0.0000000000e+00
    H -1.8897259877e+00 -7.5589039509e+00  0.0000000000e+00
    H  3.7794519754e+00 -7.5589039509e+00  0.0000000000e+00

  Distance table for similar particles (A-A):
    source/target: ion0
    Using structure-of-arrays (SoA) data layout
    Distance computations use open boundary conditions in 3D.


  Hamiltonian h0
  Kinetic         Kinetic energy
  ElecElec        CoulombAA source/target e

  IonElec         CoulombAB source=ion0

  IonIon          CoulombAA source/target ion0


Loop execution max-interations = 50

=========================================================
  Start QMCFixedSampleLinearOptimize
  File Root H4.s000 append = no 
=========================================================
  Skip QMCDriver::putQMCInfo 
  Resetting Properties of the walkers 1 x 13
  Adding 1 walkers to 0 existing sets
  Total number of walkers: 1.6000000000e+01
  Total weight: 1.6000000000e+01

=========================================================
  Start VMC
  File Root H4.s000 append = no 
=========================================================
Resetting walkers
  Using the current 1 walkers.
  Total number of walkers: 1.6000000000e+01
  Total weight: 1.6000000000e+01
  Resetting Properties of the walkers 1 x 13

<vmc function="put">
  qmc_counter=0  my_counter=0
  time step      = 5.0000000000e-02
  blocks         = 1250
  steps          = 1
  substeps       = 1
  current        = 0
  target samples = 1.0000000000e+04
  walkers/mpi    = 1

  stepsbetweensamples = 2
<parameter name="blm_length" condition="int">0</parameter>
<parameter name="blocks" condition="int">1250</parameter>
<parameter name="blocks_between_recompute" condition="int">0</parameter>
<parameter name="check_properties" condition="int">100</parameter>
<parameter name="checkproperties" condition="int">100</parameter>
<parameter name="current" condition="int">0</parameter>
<parameter name="descent_length" condition="int">2</parameter>
<parameter name="dmcwalkersperthread" condition="real">6.2500000000e+02</parameter>
<parameter name="hybrid_descent_samples" condition="real">2.6300418661e-316</parameter>
<parameter name="maxcpusecs" condition="real">3.6000000000e+05</parameter>
<parameter name="minmethod" condition="string">descent</parameter>
<parameter name="record_configs" condition="int">0</parameter>
<parameter name="record_walkers" condition="int">2</parameter>
<parameter name="recordconfigs" condition="int">0</parameter>
<parameter name="recordwalkers" condition="int">2</parameter>
<parameter name="rewind" condition="int">0</parameter>
<parameter name="samples" condition="real">1.0000000000e+04</parameter>
<parameter name="samplesperthread" condition="real">6.2500000000e+02</parameter>
<parameter name="steps" condition="int">1</parameter>
<parameter name="stepsbetweensamples" condition="int">2</parameter>
<parameter name="store_configs" condition="int">0</parameter>
<parameter name="storeconfigs" condition="int">0</parameter>
<parameter name="sub_steps" condition="int">1</parameter>
<parameter name="substeps" condition="int">1</parameter>
<parameter name="tau" condition="au">5.0000000000e-02</parameter>
<parameter name="time_step" condition="au">5.0000000000e-02</parameter>
<parameter name="timestep" condition="au">5.0000000000e-02</parameter>
<parameter name="use_drift" condition="string">no</parameter>
<parameter name="usedrift" condition="string">no</parameter>
<parameter name="walkers" condition="int">1</parameter>
<parameter name="warmup_steps" condition="int">1000</parameter>
<parameter name="warmupsteps" condition="int">1000</parameter>
  DumpConfig==false Nothing (configurations, state) will be saved.
  Walker Samples are dumped every 2 steps.
</vmc>
  Set drift_modifier UNR parameter a = 1.0000000000e+00
 Using QMCCostFunction::QMCCostFunction
  Set drift_modifier UNR parameter a = 1.0000000000e+00
<optimization-report>
<vmc stage="main" blocks="1250">
  Initial partition of walkers 0 1 

  Using Particle by Particle moves
  Walker moves without drift
  Total Sample Size   =10000
  Walker distribution on root = 0 1 
===== Memory Usage after the buffer registration =====
Available memory on node 0, free + buffers : 86700 MB
Memory footprint by rank 0 on node 0       : 74 MB
==================================================
  Anonymous Buffer size per walker : 10664 Bytes.
MEMORY increase 0 MB VMC::resetRun
====================================================
  SimpleFixedNodeBranch::finalize after a VMC block
    QMC counter        = 0
    time step          = 0.05
    reference energy   = -2.12995
    reference variance = 0.0958235
====================================================
  Execution time = 1.6590e-01
</vmc>
<opt stage="setup">
  <log>
   Reading configurations from h5FileRoot H4.s000
  QMCCostFunction is created with 1 threads.
  Using Nonlocal PP in Opt: no
   Number of samples loaded to each thread : 625 
  VMC Eavg = -2.0985e+00
  VMC Evar = 1.3011e-01
  Total weights = 1.0000e+04
  Execution time = 2.7111e-02
  </log>
</opt>
<opt stage="main" walkers="10000">
  <log>
Iteration: 1/1
  VMC Eavg = -2.0985e+00
  VMC Evar = 1.3011e-01
  Total weights = 1.0000e+04
Number of Parameters: 39
Parameter Type step sizes:  TJF_2Body_eta=5.0000e-02 TJF_1Body_eta=1.0000e-01 F_eta=1.0000e-03 CI_eta=1.0000e-02 Orb_eta=1.0000e-03
Using RMSprop
  Execution time = 2.1873e-01
  </log>
  <optVariables href="H4.s000.opt.xml">
uu_0      0.000000e+00                 1 1 ON  0
uu_1      -6.903043e-06                1 1 ON  1
uu_2      -4.613134e-06                1 1 ON  2
uu_3      -1.248376e-04                1 1 ON  3
uu_4      -3.268430e-04                1 1 ON  4
uu_5      1.004412e-04                 1 1 ON  5
uu_6      1.226093e-04                 1 1 ON  6
uu_7      -4.896254e-04                1 1 ON  7
uu_8      1.627574e-03                 1 1 ON  8
uu_9      -1.371287e-03                1 1 ON  9
ud_0      1.838367e-03                 1 1 ON  10
ud_1      3.189809e-03                 1 1 ON  11
ud_2      -3.290186e-03                1 1 ON  12
ud_3      -2.173669e-03                1 1 ON  13
ud_4      -1.236847e-03                1 1 ON  14
ud_5      2.834857e-04                 1 1 ON  15
ud_6      -4.460930e-03                1 1 ON  16
ud_7      -1.681180e-03                1 1 ON  17
ud_8      3.078435e-03                 1 1 ON  18
ud_9      2.804797e-03                 1 1 ON  19
eH_0      -1.378029e-02                1 1 ON  20
eH_1      -1.647039e-02                1 1 ON  21
eH_2      1.268412e-02                 1 1 ON  22
eH_3      2.990068e-03                 1 1 ON  23
eH_4      -1.067320e-02                1 1 ON  24
eH_5      -7.940618e-04                1 1 ON  25
eH_6      -9.708537e-03                1 1 ON  26
eH_7      3.888649e-04                 1 1 ON  27
eH_8      2.820985e-03                 1 1 ON  28
eH_9      -2.418424e-02                1 1 ON  29
CIcoeff_1 -6.309002e-01                3 1 ON  30
CIcoeff_2 -5.719664e-02                3 1 ON  31
CIcoeff_3 4.884602e-02                 3 1 ON  32
CIcoeff_4 1.426602e-02                 3 1 ON  33
CIcoeff_5 1.440756e-02                 3 1 ON  34
CIcoeff_6 5.005426e-03                 3 1 ON  35
CIcoeff_7 5.036412e-03                 3 1 ON  36
CIcoeff_8 -1.589371e-03                3 1 ON  37
CIcoeff_9 -1.534283e-03                3 1 ON  38
  </optVariables>
   Restore the number of walkers to 1, removing 0 walkers.
</opt>
</optimization-report>
  QMC Execution time = 0.2245 secs
  Reusing QMCFixedSampleLinearOptimize
 Using QMCCostFunction::QMCCostFunction

=========================================================
  Start QMCFixedSampleLinearOptimize
  File Root H4.s001 append = no 
=========================================================
  Skip QMCDriver::putQMCInfo 
  Resetting Properties of the walkers 1 x 13

=========================================================
  Start VMC
  File Root H4.s001 append = no 
=========================================================
Using existing walkers 
  Resetting Properties of the walkers 1 x 13

<vmc function="put">
  qmc_counter=1  my_counter=1
  time step      = 5.0000e-02
  blocks         = 1250
  steps          = 1
  substeps       = 1
  current        = 0
  target samples = 1.0000e+04
  walkers/mpi    = 1

  stepsbetweensamples = 2
<parameter name="blm_length" condition="int">0</parameter>
<parameter name="blocks" condition="int">1250</parameter>
<parameter name="blocks_between_recompute" condition="int">0</parameter>
<parameter name="check_properties" condition="int">100</parameter>
<parameter name="checkproperties" condition="int">100</parameter>
<parameter name="current" condition="int">0</parameter>
<parameter name="descent_length" condition="int">2</parameter>
<parameter name="dmcwalkersperthread" condition="real">6.2500e+02</parameter>
<parameter name="hybrid_descent_samples" condition="real">2.6300e-316</parameter>
<parameter name="maxcpusecs" condition="real">3.6000e+05</parameter>
<parameter name="minmethod" condition="string">descent</parameter>
<parameter name="record_configs" condition="int">0</parameter>
<parameter name="record_walkers" condition="int">2</parameter>
<parameter name="recordconfigs" condition="int">0</parameter>
<parameter name="recordwalkers" condition="int">2</parameter>
<parameter name="rewind" condition="int">0</parameter>
<parameter name="samples" condition="real">1.0000e+04</parameter>
<parameter name="samplesperthread" condition="real">6.2500e+02</parameter>
<parameter name="steps" condition="int">1</parameter>
<parameter name="stepsbetweensamples" condition="int">2</parameter>
<parameter name="store_configs" condition="int">0</parameter>
<parameter name="storeconfigs" condition="int">0</parameter>
<parameter name="sub_steps" condition="int">1</parameter>
<parameter name="substeps" condition="int">1</parameter>
<parameter name="tau" condition="au">5.0000e-02</parameter>
<parameter name="time_step" condition="au">5.0000e-02</parameter>
<parameter name="timestep" condition="au">5.0000e-02</parameter>
<parameter name="use_drift" condition="string">no</parameter>
<parameter name="usedrift" condition="string">no</parameter>
<parameter name="walkers" condition="int">1</parameter>
<parameter name="warmup_steps" condition="int">1000</parameter>
<parameter name="warmupsteps" condition="int">1000</parameter>
  DumpConfig==false Nothing (configurations, state) will be saved.
  Walker Samples are dumped every 2 steps.
</vmc>
  Set drift_modifier UNR parameter a = 1.0000e+00
  EstimatorManagerBase::add replace LocalEnergy estimator.
  Set drift_modifier UNR parameter a = 1.0000e+00
  EstimatorManagerBase::add replace LocalEnergy estimator.
<optimization-report>
<vmc stage="main" blocks="1250">
  Cannot make clones again. Use existing 1 clones
  Initial partition of walkers 0 1 
  Using Particle by Particle moves
  Walker moves without drift
  Total Sample Size   =10000
  Walker distribution on root = 0 1 
===== Memory Usage after the buffer registration =====
Available memory on node 0, free + buffers : 86688 MB
Memory footprint by rank 0 on node 0       : 75 MB
==================================================
====================================================
  SimpleFixedNodeBranch::finalize after a VMC block
    QMC counter        = 1
    time step          = 0.05
    reference energy   = -2.18716
    reference variance = 0.026679
====================================================
  Execution time = 1.6685e-01
</vmc>
<opt stage="setup">
  <log>
   Reading configurations from h5FileRoot H4.s001
  QMCCostFunction is created with 1 threads.
  Using Nonlocal PP in Opt: no
   Number of samples loaded to each thread : 625 
  VMC Eavg = -2.0973e+00
  VMC Evar = 1.3883e-01
  Total weights = 1.0000e+04
  Execution time = 2.7472e-02
  </log>
</opt>
<opt stage="main" walkers="10000">
  <log>
Iteration: 1/1
  VMC Eavg = -2.0973e+00
  VMC Evar = 1.3883e-01
  Total weights = 1.0000e+04
Number of Parameters: 39
Parameter Type step sizes:  TJF_2Body_eta=5.0000e-02 TJF_1Body_eta=1.0000e-01 F_eta=1.0000e-03 CI_eta=1.0000e-02 Orb_eta=1.0000e-03
Using RMSprop
  Execution time = 2.2034e-01
  </log>
  <optVariables href="H4.s001.opt.xml">
uu_0      0.000000e+00                 1 1 ON  0
uu_1      -4.292551e-06                1 1 ON  1
uu_2      -1.299403e-01                1 1 ON  2
uu_3      -5.584500e-02                1 1 ON  3
uu_4      -5.885138e-02                1 1 ON  4
uu_5      1.905667e-01                 1 1 ON  5
uu_6      1.896803e-01                 1 1 ON  6
uu_7      -1.641578e-01                1 1 ON  7
uu_8      -1.450962e-01                1 1 ON  8
uu_9      1.005487e-01                 1 1 ON  9
ud_0      1.125192e-01                 1 1 ON  10
ud_1      4.886286e-02                 1 1 ON  11
ud_2      2.178268e-02                 1 1 ON  12
ud_3      -1.110190e-01                1 1 ON  13
ud_4      -1.635434e-01                1 1 ON  14
ud_5      1.659637e-01                 1 1 ON  15
ud_6      -6.027084e-02                1 1 ON  16
ud_7      1.056981e-01                 1 1 ON  17
ud_8      9.512522e-02                 1 1 ON  18
ud_9      -1.561901e-02                1 1 ON  19
eH_0      -6.900354e-02                1 1 ON  20
eH_1      5.075307e-02                 1 1 ON  21
eH_2      2.088339e-02                 1 1 ON  22
eH_3      -6.745043e-02                1 1 ON  23
eH_4      7.668162e-03                 1 1 ON  24
eH_5      -3.796900e-01                1 1 ON  25
eH_6      -7.255786e-03                1 1 ON  26
eH_7      -2.870565e-01                1 1 ON  27
eH_8      -3.316930e-01                1 1 ON  28
eH_9      9.882425e-02                 1 1 ON  29
CIcoeff_1 -6.260278e-01                3 1 ON  30
CIcoeff_2 -5.864330e-02                3 1 ON  31
CIcoeff_3 5.169340e-02                 3 1 ON  32
CIcoeff_4 1.198665e-02                 3 1 ON  33
CIcoeff_5 1.195439e-02                 3 1 ON  34
CIcoeff_6 -9.980367e-03                3 1 ON  35
CIcoeff_7 -3.435454e-02                3 1 ON  36
CIcoeff_8 -7.096038e-03                3 1 ON  37
CIcoeff_9 5.769557e-03                 3 1 ON  38
  </optVariables>
   Restore the number of walkers to 1, removing 0 walkers.
</opt>
</optimization-report>
  QMC Execution time = 0.226 secs
  Reusing QMCFixedSampleLinearOptimize
 Using QMCCostFunction::QMCCostFunction

=========================================================
  Start QMCFixedSampleLinearOptimize
  File Root H4.s002 append = no 
=========================================================
  Skip QMCDriver::putQMCInfo 
  Resetting Properties of the walkers 1 x 13

=========================================================
  Start VMC
  File Root H4.s002 append = no 
=========================================================
Using existing walkers 
  Resetting Properties of the walkers 1 x 13

<vmc function="put">
  qmc_counter=2  my_counter=2
  time step      = 5.0000e-02
  blocks         = 1250
  steps          = 1
  substeps       = 1
  current        = 0
  target samples = 1.0000e+04
  walkers/mpi    = 1

  stepsbetweensamples = 2
<parameter name="blm_length" condition="int">0</parameter>
<parameter name="blocks" condition="int">1250</parameter>
<parameter name="blocks_between_recompute" condition="int">0</parameter>
<parameter name="check_properties" condition="int">100</parameter>
<parameter name="checkproperties" condition="int">100</parameter>
<parameter name="current" condition="int">0</parameter>
<parameter name="descent_length" condition="int">2</parameter>
<parameter name="dmcwalkersperthread" condition="real">6.2500e+02</parameter>
<parameter name="hybrid_descent_samples" condition="real">2.6300e-316</parameter>
<parameter name="maxcpusecs" condition="real">3.6000e+05</parameter>
<parameter name="minmethod" condition="string">descent</parameter>
<parameter name="record_configs" condition="int">0</parameter>
<parameter name="record_walkers" condition="int">2</parameter>
<parameter name="recordconfigs" condition="int">0</parameter>
<parameter name="recordwalkers" condition="int">2</parameter>
<parameter name="rewind" condition="int">0</parameter>
<parameter name="samples" condition="real">1.0000e+04</parameter>
<parameter name="samplesperthread" condition="real">6.2500e+02</parameter>
<parameter name="steps" condition="int">1</parameter>
<parameter name="stepsbetweensamples" condition="int">2</parameter>
<parameter name="store_configs" condition="int">0</parameter>
<parameter name="storeconfigs" condition="int">0</parameter>
<parameter name="sub_steps" condition="int">1</parameter>
<parameter name="substeps" condition="int">1</parameter>
<parameter name="tau" condition="au">5.0000e-02</parameter>
<parameter name="time_step" condition="au">5.0000e-02</parameter>
<parameter name="timestep" condition="au">5.0000e-02</parameter>
<parameter name="use_drift" condition="string">no</parameter>
<parameter name="usedrift" condition="string">no</parameter>
<parameter name="walkers" condition="int">1</parameter>
<parameter name="warmup_steps" condition="int">1000</parameter>
<parameter name="warmupsteps" condition="int">1000</parameter>
  DumpConfig==false Nothing (configurations, state) will be saved.
  Walker Samples are dumped every 2 steps.
</vmc>
  Set drift_modifier UNR parameter a = 1.0000e+00
  EstimatorManagerBase::add replace LocalEnergy estimator.
  Set drift_modifier UNR parameter a = 1.0000e+00
  EstimatorManagerBase::add replace LocalEnergy estimator.
<optimization-report>
<vmc stage="main" blocks="1250">
  Cannot make clones again. Use existing 1 clones
  Initial partition of walkers 0 1 
  Using Particle by Particle moves
  Walker moves without drift
  Total Sample Size   =10000
  Walker distribution on root = 0 1 
===== Memory Usage after the buffer registration =====
Available memory on node 0, free + buffers : 86684 MB
Memory footprint by rank 0 on node 0       : 76 MB
==================================================
====================================================
  SimpleFixedNodeBranch::finalize after a VMC block
    QMC counter        = 2
    time step          = 0.05
    reference energy   = -1.86051
    reference variance = 0.801696
====================================================
  Execution time = 1.6670e-01
</vmc>
<opt stage="setup">
  <log>
   Reading configurations from h5FileRoot H4.s002
  QMCCostFunction is created with 1 threads.
  Using Nonlocal PP in Opt: no
   Number of samples loaded to each thread : 625 
  VMC Eavg = -1.8223e+00
  VMC Evar = 9.9345e-01
  Total weights = 1.0000e+04
  Execution time = 2.7237e-02
  </log>
</opt>
<opt stage="main" walkers="10000">
  <log>
Iteration: 1/1
  VMC Eavg = -1.8223e+00
  VMC Evar = 9.9345e-01
  Total weights = 1.0000e+04
Number of Parameters: 39
Parameter Type step sizes:  TJF_2Body_eta=5.0000e-02 TJF_1Body_eta=1.0000e-01 F_eta=1.0000e-03 CI_eta=1.0000e-02 Orb_eta=1.0000e-03
Using RMSprop
  Execution time = 2.2094e-01
  </log>
  <optVariables href="H4.s002.opt.xml">
uu_0      0.000000e+00                 1 1 ON  0
uu_1      -8.643357e-02                1 1 ON  1
uu_2      -2.368446e-01                1 1 ON  2
uu_3      3.190067e-02                 1 1 ON  3
uu_4      -1.649477e-01                1 1 ON  4
uu_5      4.801177e-02                 1 1 ON  5
uu_6      -6.219862e-03                1 1 ON  6
uu_7      5.899599e-02                 1 1 ON  7
uu_8      4.710693e-02                 1 1 ON  8
uu_9      -9.712273e-02                1 1 ON  9
ud_0      1.869683e-01                 1 1 ON  10
ud_1      1.189658e-01                 1 1 ON  11
ud_2      -8.651840e-02                1 1 ON  12
ud_3      -7.353279e-02                1 1 ON  13
ud_4      -6.571867e-02                1 1 ON  14
ud_5      -1.846609e-02                1 1 ON  15
ud_6      -7.146003e-03                1 1 ON  16
ud_7      1.724890e-01                 1 1 ON  17
ud_8      9.899504e-02                 1 1 ON  18
ud_9      -2.293560e-02                1 1 ON  19
eH_0      -7.187703e-02                1 1 ON  20
eH_1      -3.210474e-02                1 1 ON  21
eH_2      1.351312e-01                 1 1 ON  22
eH_3      2.057085e-01                 1 1 ON  23
eH_4      -1.906062e-02                1 1 ON  24
eH_5      3.589626e-02                 1 1 ON  25
eH_6      -2.319250e-01                1 1 ON  26
eH_7      1.515445e-01                 1 1 ON  27
eH_8      1.153579e-01                 1 1 ON  28
eH_9      -1.027750e-01                1 1 ON  29
CIcoeff_1 -6.324526e-01                3 1 ON  30
CIcoeff_2 -6.285749e-02                3 1 ON  31
CIcoeff_3 3.313121e-02                 3 1 ON  32
CIcoeff_4 1.145815e-02                 3 1 ON  33
CIcoeff_5 1.261539e-02                 3 1 ON  34
CIcoeff_6 -1.743175e-02                3 1 ON  35
CIcoeff_7 -5.201825e-02                3 1 ON  36
CIcoeff_8 -1.950683e-02                3 1 ON  37
CIcoeff_9 -2.642021e-02                3 1 ON  38
  </optVariables>
   Restore the number of walkers to 1, removing 0 walkers.
</opt>
</optimization-report>
  QMC Execution time = 0.2267 secs
  Reusing QMCFixedSampleLinearOptimize
 Using QMCCostFunction::QMCCostFunction

=========================================================
  Start QMCFixedSampleLinearOptimize
  File Root H4.s003 append = no 
=========================================================
  Skip QMCDriver::putQMCInfo 
  Resetting Properties of the walkers 1 x 13

=========================================================
  Start VMC
  File Root H4.s003 append = no 
=========================================================
Using existing walkers 
  Resetting Properties of the walkers 1 x 13

<vmc function="put">
  qmc_counter=3  my_counter=3
  time step      = 5.0000e-02
  blocks         = 1250
  steps          = 1
  substeps       = 1
  current        = 0
  target samples = 1.0000e+04
  walkers/mpi    = 1

  stepsbetweensamples = 2
<parameter name="blm_length" condition="int">0</parameter>
<parameter name="blocks" condition="int">1250</parameter>
<parameter name="blocks_between_recompute" condition="int">0</parameter>
<parameter name="check_properties" condition="int">100</parameter>
<parameter name="checkproperties" condition="int">100</parameter>
<parameter name="current" condition="int">0</parameter>
<parameter name="descent_length" condition="int">2</parameter>
<parameter name="dmcwalkersperthread" condition="real">6.2500e+02</parameter>
<parameter name="hybrid_descent_samples" condition="real">2.6300e-316</parameter>
<parameter name="maxcpusecs" condition="real">3.6000e+05</parameter>
<parameter name="minmethod" condition="string">descent</parameter>
<parameter name="record_configs" condition="int">0</parameter>
<parameter name="record_walkers" condition="int">2</parameter>
<parameter name="recordconfigs" condition="int">0</parameter>
<parameter name="recordwalkers" condition="int">2</parameter>
<parameter name="rewind" condition="int">0</parameter>
<parameter name="samples" condition="real">1.0000e+04</parameter>
<parameter name="samplesperthread" condition="real">6.2500e+02</parameter>
<parameter name="steps" condition="int">1</parameter>
<parameter name="stepsbetweensamples" condition="int">2</parameter>
<parameter name="store_configs" condition="int">0</parameter>
<parameter name="storeconfigs" condition="int">0</parameter>
<parameter name="sub_steps" condition="int">1</parameter>
<parameter name="substeps" condition="int">1</parameter>
<parameter name="tau" condition="au">5.0000e-02</parameter>
<parameter name="time_step" condition="au">5.0000e-02</parameter>
<parameter name="timestep" condition="au">5.0000e-02</parameter>
<parameter name="use_drift" condition="string">no</parameter>
<parameter name="usedrift" condition="string">no</parameter>
<parameter name="walkers" condition="int">1</parameter>
<parameter name="warmup_steps" condition="int">1000</parameter>
<parameter name="warmupsteps" condition="int">1000</parameter>
  DumpConfig==false Nothing (configurations, state) will be saved.
  Walker Samples are dumped every 2 steps.
</vmc>
  Set drift_modifier UNR parameter a = 1.0000e+00
  EstimatorManagerBase::add replace LocalEnergy estimator.
  Set drift_modifier UNR parameter a = 1.0000e+00
  EstimatorManagerBase::add replace LocalEnergy estimator.
<optimization-report>
<vmc stage="main" blocks="1250">
  Cannot make clones again. Use existing 1 clones
  Initial partition of walkers 0 1 
  Using Particle by Particle moves
  Walker moves without drift
  Total Sample Size   =10000
  Walker distribution on root = 0 1 
===== Memory Usage after the buffer registration =====
Available memory on node 0, free + buffers : 86684 MB
Memory footprint by rank 0 on node 0       : 76 MB
==================================================
====================================================
  SimpleFixedNodeBranch::finalize after a VMC block
    QMC counter        = 3
    time step          = 0.05
    reference energy   = -1.95873
    reference variance = 0.762847
====================================================
  Execution time = 1.6476e-01
</vmc>
<opt stage="setup">
  <log>
   Reading configurations from h5FileRoot H4.s003
  QMCCostFunction is created with 1 threads.
  Using Nonlocal PP in Opt: no
   Number of samples loaded to each thread : 625 
  VMC Eavg = -1.9516e+00
  VMC Evar = 5.7718e-01
  Total weights = 1.0000e+04
  Execution time = 2.8210e-02
  </log>
</opt>
<opt stage="main" walkers="10000">
  <log>
Iteration: 1/1
  VMC Eavg = -1.9516e+00
  VMC Evar = 5.7718e-01
  Total weights = 1.0000e+04
Number of Parameters: 39
Parameter Type step sizes:  TJF_2Body_eta=5.0000e-02 TJF_1Body_eta=1.0000e-01 F_eta=1.0000e-03 CI_eta=1.0000e-02 Orb_eta=1.0000e-03
Using RMSprop
  Execution time = 2.1899e-01
  </log>
  <optVariables href="H4.s003.opt.xml">
uu_0      0.000000e+00                 1 1 ON  0
uu_1      -1.134928e-01                1 1 ON  1
uu_2      -3.193833e-01                1 1 ON  2
uu_3      8.931100e-02                 1 1 ON  3
uu_4      -1.051600e-01                1 1 ON  4
uu_5      5.653267e-02                 1 1 ON  5
uu_6      1.315932e-01                 1 1 ON  6
uu_7      -2.371766e-02                1 1 ON  7
uu_8      -7.464739e-02                1 1 ON  8
uu_9      -1.579164e-02                1 1 ON  9
ud_0      2.014836e-01                 1 1 ON  10
ud_1      1.733950e-01                 1 1 ON  11
ud_2      -9.917780e-02                1 1 ON  12
ud_3      -1.313151e-01                1 1 ON  13
ud_4      -5.739245e-02                1 1 ON  14
ud_5      -1.182842e-01                1 1 ON  15
ud_6      1.439699e-02                 1 1 ON  16
ud_7      7.862339e-02                 1 1 ON  17
ud_8      -2.970897e-02                1 1 ON  18
ud_9      5.196406e-02                 1 1 ON  19
eH_0      -3.360406e-02                1 1 ON  20
eH_1      8.092834e-02                 1 1 ON  21
eH_2      -8.783497e-02                1 1 ON  22
eH_3      -5.879362e-02                1 1 ON  23
eH_4      1.302595e-01                 1 1 ON  24
eH_5      -1.658019e-02                1 1 ON  25
eH_6      -2.262490e-02                1 1 ON  26
eH_7      -2.409800e-01                1 1 ON  27
eH_8      -1.518873e-01                1 1 ON  28
eH_9      9.643789e-02                 1 1 ON  29
CIcoeff_1 -6.201332e-01                3 1 ON  30
CIcoeff_2 -4.150364e-02                3 1 ON  31
CIcoeff_3 6.808097e-02                 3 1 ON  32
CIcoeff_4 1.547137e-02                 3 1 ON  33
CIcoeff_5 1.223206e-02                 3 1 ON  34
CIcoeff_6 5.032764e-04                 3 1 ON  35
CIcoeff_7 -6.942284e-02                3 1 ON  36
CIcoeff_8 1.157666e-02                 3 1 ON  37
CIcoeff_9 1.253781e-02                 3 1 ON  38
  </optVariables>
   Restore the number of walkers to 1, removing 0 walkers.
</opt>
</optimization-report>
  QMC Execution time = 0.2247 secs
  Reusing QMCFixedSampleLinearOptimize
 Using QMCCostFunction::QMCCostFunction

=========================================================
  Start QMCFixedSampleLinearOptimize
  File Root H4.s004 append = no 
=========================================================
  Skip QMCDriver::putQMCInfo 
  Resetting Properties of the walkers 1 x 13

=========================================================
  Start VMC
  File Root H4.s004 append = no 
=========================================================
Using existing walkers 
  Resetting Properties of the walkers 1 x 13

<vmc function="put">
  qmc_counter=4  my_counter=4
  time step      = 5.0000e-02
  blocks         = 1250
  steps          = 1
  substeps       = 1
  current        = 0
  target samples = 1.0000e+04
  walkers/mpi    = 1

  stepsbetweensamples = 2
<parameter name="blm_length" condition="int">0</parameter>
<parameter name="blocks" condition="int">1250</parameter>
<parameter name="blocks_between_recompute" condition="int">0</parameter>
<parameter name="check_properties" condition="int">100</parameter>
<parameter name="checkproperties" condition="int">100</parameter>
<parameter name="current" condition="int">0</parameter>
<parameter name="descent_length" condition="int">2</parameter>
<parameter name="dmcwalkersperthread" condition="real">6.2500e+02</parameter>
<parameter name="hybrid_descent_samples" condition="real">2.6300e-316</parameter>
<parameter name="maxcpusecs" condition="real">3.6000e+05</parameter>
<parameter name="minmethod" condition="string">descent</parameter>
<parameter name="record_configs" condition="int">0</parameter>
<parameter name="record_walkers" condition="int">2</parameter>
<parameter name="recordconfigs" condition="int">0</parameter>
<parameter name="recordwalkers" condition="int">2</parameter>
<parameter name="rewind" condition="int">0</parameter>
<parameter name="samples" condition="real">1.0000e+04</parameter>
<parameter name="samplesperthread" condition="real">6.2500e+02</parameter>
<parameter name="steps" condition="int">1</parameter>
<parameter name="stepsbetweensamples" condition="int">2</parameter>
<parameter name="store_configs" condition="int">0</parameter>
<parameter name="storeconfigs" condition="int">0</parameter>
<parameter name="sub_steps" condition="int">1</parameter>
<parameter name="substeps" condition="int">1</parameter>
<parameter name="tau" condition="au">5.0000e-02</parameter>
<parameter name="time_step" condition="au">5.0000e-02</parameter>
<parameter name="timestep" condition="au">5.0000e-02</parameter>
<parameter name="use_drift" condition="string">no</parameter>
<parameter name="usedrift" condition="string">no</parameter>
<parameter name="walkers" condition="int">1</parameter>
<parameter name="warmup_steps" condition="int">1000</parameter>
<parameter name="warmupsteps" condition="int">1000</parameter>
  DumpConfig==false Nothing (configurations, state) will be saved.
  Walker Samples are dumped every 2 steps.
</vmc>
  Set drift_modifier UNR parameter a = 1.0000e+00
  EstimatorManagerBase::add replace LocalEnergy estimator.
  Set drift_modifier UNR parameter a = 1.0000e+00
  EstimatorManagerBase::add replace LocalEnergy estimator.
<optimization-report>
<vmc stage="main" blocks="1250">
  Cannot make clones again. Use existing 1 clones
  Initial partition of walkers 0 1 
  Using Particle by Particle moves
  Walker moves without drift
  Total Sample Size   =10000
  Walker distribution on root = 0 1 
===== Memory Usage after the buffer registration =====
Available memory on node 0, free + buffers : 86684 MB
Memory footprint by rank 0 on node 0       : 76 MB
==================================================
====================================================
  SimpleFixedNodeBranch::finalize after a VMC block
    QMC counter        = 4
    time step          = 0.05
    reference energy   = -1.91168
    reference variance = 0.323901
====================================================
  Execution time = 1.7252e-01
</vmc>
<opt stage="setup">
  <log>
   Reading configurations from h5FileRoot H4.s004
  QMCCostFunction is created with 1 threads.
  Using Nonlocal PP in Opt: no
   Number of samples loaded to each thread : 625 
  VMC Eavg = -1.9425e+00
  VMC Evar = 4.6471e-01
  Total weights = 1.0000e+04
  Execution time = 2.6630e-02
  </log>
</opt>
<opt stage="main" walkers="10000">
  <log>
Iteration: 1/1
  VMC Eavg = -1.9425e+00
  VMC Evar = 4.6471e-01
  Total weights = 1.0000e+04
Number of Parameters: 39
Parameter Type step sizes:  TJF_2Body_eta=5.0000e-02 TJF_1Body_eta=1.0000e-01 F_eta=1.0000e-03 CI_eta=1.0000e-02 Orb_eta=1.0000e-03
Using RMSprop
  Execution time = 2.2482e-01
  </log>
  <optVariables href="H4.s004.opt.xml">
uu_0      0.000000e+00                 1 1 ON  0
uu_1      -1.940128e-01                1 1 ON  1
uu_2      -3.598988e-01                1 1 ON  2
uu_3      6.826690e-02                 1 1 ON  3
uu_4      3.580734e-03                 1 1 ON  4
uu_5      1.977088e-01                 1 1 ON  5
uu_6      2.261211e-01                 1 1 ON  6
uu_7      1.089241e-02                 1 1 ON  7
uu_8      -8.614373e-03                1 1 ON  8
uu_9      -8.562588e-02                1 1 ON  9
ud_0      2.330895e-01                 1 1 ON  10
ud_1      1.397378e-01                 1 1 ON  11
ud_2      -9.600801e-02                1 1 ON  12
ud_3      -9.451244e-02                1 1 ON  13
ud_4      -1.130765e-01                1 1 ON  14
ud_5      5.554745e-02                 1 1 ON  15
ud_6      7.075360e-02                 1 1 ON  16
ud_7      3.943488e-02                 1 1 ON  17
ud_8      -4.299603e-02                1 1 ON  18
ud_9      1.011122e-01                 1 1 ON  19
eH_0      -1.329802e-01                1 1 ON  20
eH_1      -1.646661e-01                1 1 ON  21
eH_2      1.368369e-01                 1 1 ON  22
eH_3      2.657592e-01                 1 1 ON  23
eH_4      1.410345e-01                 1 1 ON  24
eH_5      1.114009e-01                 1 1 ON  25
eH_6      -3.869508e-02                1 1 ON  26
eH_7      8.855228e-02                 1 1 ON  27
eH_8      5.082279e-03                 1 1 ON  28
eH_9      -1.417335e-01                1 1 ON  29
CIcoeff_1 -6.304739e-01                3 1 ON  30
CIcoeff_2 -4.767695e-02                3 1 ON  31
CIcoeff_3 6.169406e-02                 3 1 ON  32
CIcoeff_4 1.346469e-02                 3 1 ON  33
CIcoeff_5 1.516254e-02                 3 1 ON  34
CIcoeff_6 1.149796e-02                 3 1 ON  35
CIcoeff_7 -6.165062e-02                3 1 ON  36
CIcoeff_8 8.656922e-03                 3 1 ON  37
CIcoeff_9 6.281728e-03                 3 1 ON  38
  </optVariables>
   Restore the number of walkers to 1, removing 0 walkers.
</opt>
</optimization-report>
  QMC Execution time = 0.2305 secs
  Reusing QMCFixedSampleLinearOptimize
 Using QMCCostFunction::QMCCostFunction

=========================================================
  Start QMCFixedSampleLinearOptimize
  File Root H4.s005 append = no 
=========================================================
  Skip QMCDriver::putQMCInfo 
  Resetting Properties of the walkers 1 x 13

=========================================================
  Start VMC
  File Root H4.s005 append = no 
=========================================================
Using existing walkers 
  Resetting Properties of the walkers 1 x 13

<vmc function="put">
  qmc_counter=5  my_counter=5
  time step      = 5.0000e-02
  blocks         = 1250
  steps          = 1
  substeps       = 1
  current        = 0
  target samples = 1.0000e+04
  walkers/mpi    = 1

  stepsbetweensamples = 2
<parameter name="blm_length" condition="int">0</parameter>
<parameter name="blocks" condition="int">1250</parameter>
<parameter name="blocks_between_recompute" condition="int">0</parameter>
<parameter name="check_properties" condition="int">100</parameter>
<parameter name="checkproperties" condition="int">100</parameter>
<parameter name="current" condition="int">0</parameter>
<parameter name="descent_length" condition="int">2</parameter>
<parameter name="dmcwalkersperthread" condition="real">6.2500e+02</parameter>
<parameter name="hybrid_descent_samples" condition="real">2.6300e-316</parameter>
<parameter name="maxcpusecs" condition="real">3.6000e+05</parameter>
<parameter name="minmethod" condition="string">descent</parameter>
<parameter name="record_configs" condition="int">0</parameter>
<parameter name="record_walkers" condition="int">2</parameter>
<parameter name="recordconfigs" condition="int">0</parameter>
<parameter name="recordwalkers" condition="int">2</parameter>
<parameter name="rewind" condition="int">0</parameter>
<parameter name="samples" condition="real">1.0000e+04</parameter>
<parameter name="samplesperthread" condition="real">6.2500e+02</parameter>
<parameter name="steps" condition="int">1</parameter>
<parameter name="stepsbetweensamples" condition="int">2</parameter>
<parameter name="store_configs" condition="int">0</parameter>
<parameter name="storeconfigs" condition="int">0</parameter>
<parameter name="sub_steps" condition="int">1</parameter>
<parameter name="substeps" condition="int">1</parameter>
<parameter name="tau" condition="au">5.0000e-02</parameter>
<parameter name="time_step" condition="au">5.0000e-02</parameter>
<parameter name="timestep" condition="au">5.0000e-02</parameter>
<parameter name="use_drift" condition="string">no</parameter>
<parameter name="usedrift" condition="string">no</parameter>
<parameter name="walkers" condition="int">1</parameter>
<parameter name="warmup_steps" condition="int">1000</parameter>
<parameter name="warmupsteps" condition="int">1000</parameter>
  DumpConfig==false Nothing (configurations, state) will be saved.
  Walker Samples are dumped every 2 steps.
</vmc>
  Set drift_modifier UNR parameter a = 1.0000e+00
  EstimatorManagerBase::add replace LocalEnergy estimator.
  Set drift_modifier UNR parameter a = 1.0000e+00
  EstimatorManagerBase::add replace LocalEnergy estimator.
<optimization-report>
<vmc stage="main" blocks="1250">
  Cannot make clones again. Use existing 1 clones
  Initial partition of walkers 0 1 
  Using Particle by Particle moves
  Walker moves without drift
  Total Sample Size   =10000
  Walker distribution on root = 0 1 
===== Memory Usage after the buffer registration =====
Available memory on node 0, free + buffers : 86684 MB
Memory footprint by rank 0 on node 0       : 76 MB
==================================================
====================================================
  SimpleFixedNodeBranch::finalize after a VMC block
    QMC counter        = 5
    time step          = 0.05
    reference energy   = -1.8706
    reference variance = 0.753816
====================================================
  Execution time = 1.6487e-01
</vmc>
<opt stage="setup">
  <log>
   Reading configurations from h5FileRoot H4.s005
  QMCCostFunction is created with 1 threads.
  Using Nonlocal PP in Opt: no
   Number of samples loaded to each thread : 625 
  VMC Eavg = -1.9742e+00
  VMC Evar = 4.7668e-01
  Total weights = 1.0000e+04
  Execution time = 2.7009e-02
  </log>
</opt>
<opt stage="main" walkers="10000">
  <log>
Iteration: 1/1
  VMC Eavg = -1.9742e+00
  VMC Evar = 4.7668e-01
  Total weights = 1.0000e+04
Number of Parameters: 39
Parameter Type step sizes:  TJF_2Body_eta=5.0000e-02 TJF_1Body_eta=1.0000e-01 F_eta=1.0000e-03 CI_eta=1.0000e-02 Orb_eta=1.0000e-03
Using RMSprop
  Execution time = 2.1806e-01
  </log>
  <optVariables href="H4.s005.opt.xml">
uu_0      0.000000e+00                 1 1 ON  0
uu_1      -1.690265e-01                1 1 ON  1
uu_2      -3.405268e-01                1 1 ON  2
uu_3      5.804840e-02                 1 1 ON  3
uu_4      -3.053664e-02                1 1 ON  4
uu_5      1.283593e-01                 1 1 ON  5
uu_6      1.233468e-01                 1 1 ON  6
uu_7      -9.248236e-03                1 1 ON  7
uu_8      -2.623186e-02                1 1 ON  8
uu_9      -5.188426e-03                1 1 ON  9
ud_0      2.368882e-01                 1 1 ON  10
ud_1      2.229303e-01                 1 1 ON  11
ud_2      -2.170874e-02                1 1 ON  12
ud_3      -2.168768e-01                1 1 ON  13
ud_4      -1.510459e-01                1 1 ON  14
ud_5      4.816234e-02                 1 1 ON  15
ud_6      6.556728e-03                 1 1 ON  16
ud_7      -1.184942e-02                1 1 ON  17
ud_8      -1.831763e-02                1 1 ON  18
ud_9      9.755046e-02                 1 1 ON  19
eH_0      -1.063729e-01                1 1 ON  20
eH_1      8.141840e-02                 1 1 ON  21
eH_2      -6.507467e-03                1 1 ON  22
eH_3      -3.466454e-02                1 1 ON  23
eH_4      1.291086e-01                 1 1 ON  24
eH_5      9.389238e-02                 1 1 ON  25
eH_6      -4.701306e-02                1 1 ON  26
eH_7      -1.165147e-01                1 1 ON  27
eH_8      -4.445446e-02                1 1 ON  28
eH_9      5.430667e-02                 1 1 ON  29
CIcoeff_1 -6.248569e-01                3 1 ON  30
CIcoeff_2 -4.814784e-02                3 1 ON  31
CIcoeff_3 6.289400e-02                 3 1 ON  32
CIcoeff_4 1.177721e-02                 3 1 ON  33
CIcoeff_5 1.359701e-02                 3 1 ON  34
CIcoeff_6 -1.836134e-03                3 1 ON  35
CIcoeff_7 -7.476910e-02                3 1 ON  36
CIcoeff_8 8.232311e-03                 3 1 ON  37
CIcoeff_9 6.826243e-03                 3 1 ON  38
  </optVariables>
   Restore the number of walkers to 1, removing 0 walkers.
</opt>
</optimization-report>
  QMC Execution time = 0.2236 secs
  Reusing QMCFixedSampleLinearOptimize
 Using QMCCostFunction::QMCCostFunction

=========================================================
  Start QMCFixedSampleLinearOptimize
  File Root H4.s006 append = no 
=========================================================
  Skip QMCDriver::putQMCInfo 
  Resetting Properties of the walkers 1 x 13

=========================================================
  Start VMC
  File Root H4.s006 append = no 
=========================================================
Using existing walkers 
  Resetting Properties of the walkers 1 x 13

<vmc function="put">
  qmc_counter=6  my_counter=6
  time step      = 5.0000e-02
  blocks         = 1250
  steps          = 1
  substeps       = 1
  current        = 0
  target samples = 1.0000e+04
  walkers/mpi    = 1

  stepsbetweensamples = 2
<parameter name="blm_length" condition="int">0</parameter>
<parameter name="blocks" condition="int">1250</parameter>
<parameter name="blocks_between_recompute" condition="int">0</parameter>
<parameter name="check_properties" condition="int">100</parameter>
<parameter name="checkproperties" condition="int">100</parameter>
<parameter name="current" condition="int">0</parameter>
<parameter name="descent_length" condition="int">2</parameter>
<parameter name="dmcwalkersperthread" condition="real">6.2500e+02</parameter>
<parameter name="hybrid_descent_samples" condition="real">2.6300e-316</parameter>
<parameter name="maxcpusecs" condition="real">3.6000e+05</parameter>
<parameter name="minmethod" condition="string">descent</parameter>
<parameter name="record_configs" condition="int">0</parameter>
<parameter name="record_walkers" condition="int">2</parameter>
<parameter name="recordconfigs" condition="int">0</parameter>
<parameter name="recordwalkers" condition="int">2</parameter>
<parameter name="rewind" condition="int">0</parameter>
<parameter name="samples" condition="real">1.0000e+04</parameter>
<parameter name="samplesperthread" condition="real">6.2500e+02</parameter>
<parameter name="steps" condition="int">1</parameter>
<parameter name="stepsbetweensamples" condition="int">2</parameter>
<parameter name="store_configs" condition="int">0</parameter>
<parameter name="storeconfigs" condition="int">0</parameter>
<parameter name="sub_steps" condition="int">1</parameter>
<parameter name="substeps" condition="int">1</parameter>
<parameter name="tau" condition="au">5.0000e-02</parameter>
<parameter name="time_step" condition="au">5.0000e-02</parameter>
<parameter name="timestep" condition="au">5.0000e-02</parameter>
<parameter name="use_drift" condition="string">no</parameter>
<parameter name="usedrift" condition="string">no</parameter>
<parameter name="walkers" condition="int">1</parameter>
<parameter name="warmup_steps" condition="int">1000</parameter>
<parameter name="warmupsteps" condition="int">1000</parameter>
  DumpConfig==false Nothing (configurations, state) will be saved.
  Walker Samples are dumped every 2 steps.
</vmc>
  Set drift_modifier UNR parameter a = 1.0000e+00
  EstimatorManagerBase::add replace LocalEnergy estimator.
  Set drift_modifier UNR parameter a = 1.0000e+00
  EstimatorManagerBase::add replace LocalEnergy estimator.
<optimization-report>
<vmc stage="main" blocks="1250">
  Cannot make clones again. Use existing 1 clones
  Initial partition of walkers 0 1 
  Using Particle by Particle moves
  Walker moves without drift
  Total Sample Size   =10000
  Walker distribution on root = 0 1 
===== Memory Usage after the buffer registration =====
Available memory on node 0, free + buffers : 86682 MB
Memory footprint by rank 0 on node 0       : 76 MB
==================================================
====================================================
  SimpleFixedNodeBranch::finalize after a VMC block
    QMC counter        = 6
    time step          = 0.05
    reference energy   = -2.23549
    reference variance = 0.40024
====================================================
  Execution time = 1.6290e-01
</vmc>
<opt stage="setup">
  <log>
   Reading configurations from h5FileRoot H4.s006
  QMCCostFunction is created with 1 threads.
  Using Nonlocal PP in Opt: no
   Number of samples loaded to each thread : 625 
  VMC Eavg = -2.0543e+00
  VMC Evar = 2.8154e-01
  Total weights = 1.0000e+04
  Execution time = 2.7647e-02
  </log>
</opt>
<opt stage="main" walkers="10000">
  <log>
Iteration: 1/1
  VMC Eavg = -2.0543e+00
  VMC Evar = 2.8154e-01
  Total weights = 1.0000e+04
Number of Parameters: 39
Parameter Type step sizes:  TJF_2Body_eta=5.0000e-02 TJF_1Body_eta=1.0000e-01 F_eta=1.0000e-03 CI_eta=1.0000e-02 Orb_eta=1.0000e-03
Using RMSprop
  Execution time = 2.1644e-01
  </log>
  <optVariables href="H4.s006.opt.xml">
uu_0      -4.417595e-02                1 1 ON  0
uu_1      -5.860450e-02                1 1 ON  1
uu_2      -3.141437e-01                1 1 ON  2
uu_3      2.007003e-02                 1 1 ON  3
uu_4      -1.265165e-02                1 1 ON  4
uu_5      1.113665e-01                 1 1 ON  5
uu_6      1.903328e-01                 1 1 ON  6
uu_7      3.299479e-02                 1 1 ON  7
uu_8      -3.664025e-02                1 1 ON  8
uu_9      -4.263783e-02                1 1 ON  9
ud_0      2.662100e-01                 1 1 ON  10
ud_1      1.947283e-01                 1 1 ON  11
ud_2      -9.589643e-02                1 1 ON  12
ud_3      -1.152172e-01                1 1 ON  13
ud_4      -1.311628e-01                1 1 ON  14
ud_5      9.450470e-03                 1 1 ON  15
ud_6      1.129299e-02                 1 1 ON  16
ud_7      7.688796e-02                 1 1 ON  17
ud_8      -9.173815e-03                1 1 ON  18
ud_9      8.603316e-03                 1 1 ON  19
eH_0      -1.371125e-01                1 1 ON  20
eH_1      -7.423806e-02                1 1 ON  21
eH_2      1.265494e-01                 1 1 ON  22
eH_3      1.153084e-01                 1 1 ON  23
eH_4      1.814604e-01                 1 1 ON  24
eH_5      4.112517e-02                 1 1 ON  25
eH_6      -5.169659e-02                1 1 ON  26
eH_7      7.005602e-03                 1 1 ON  27
eH_8      -3.001865e-02                1 1 ON  28
eH_9      -7.758557e-02                1 1 ON  29
CIcoeff_1 -6.220371e-01                3 1 ON  30
CIcoeff_2 -5.242810e-02                3 1 ON  31
CIcoeff_3 6.487405e-02                 3 1 ON  32
CIcoeff_4 9.328770e-03                 3 1 ON  33
CIcoeff_5 1.839849e-02                 3 1 ON  34
CIcoeff_6 -6.442072e-03                3 1 ON  35
CIcoeff_7 -7.893604e-02                3 1 ON  36
CIcoeff_8 5.833329e-03                 3 1 ON  37
CIcoeff_9 2.943536e-03                 3 1 ON  38
  </optVariables>
   Restore the number of walkers to 1, removing 0 walkers.
</opt>
</optimization-report>
  QMC Execution time = 0.2221 secs
  Reusing QMCFixedSampleLinearOptimize
 Using QMCCostFunction::QMCCostFunction

=========================================================
  Start QMCFixedSampleLinearOptimize
  File Root H4.s007 append = no 
=========================================================
  Skip QMCDriver::putQMCInfo 
  Resetting Properties of the walkers 1 x 13

=========================================================
  Start VMC
  File Root H4.s007 append = no 
=========================================================
Using existing walkers 
  Resetting Properties of the walkers 1 x 13

<vmc function="put">
  qmc_counter=7  my_counter=7
  time step      = 5.0000e-02
  blocks         = 1250
  steps          = 1
  substeps       = 1
  current        = 0
  target samples = 1.0000e+04
  walkers/mpi    = 1

  stepsbetweensamples = 2
<parameter name="blm_length" condition="int">0</parameter>
<parameter name="blocks" condition="int">1250</parameter>
<parameter name="blocks_between_recompute" condition="int">0</parameter>
<parameter name="check_properties" condition="int">100</parameter>
<parameter name="checkproperties" condition="int">100</parameter>
<parameter name="current" condition="int">0</parameter>
<parameter name="descent_length" condition="int">2</parameter>
<parameter name="dmcwalkersperthread" condition="real">6.2500e+02</parameter>
<parameter name="hybrid_descent_samples" condition="real">2.6300e-316</parameter>
<parameter name="maxcpusecs" condition="real">3.6000e+05</parameter>
<parameter name="minmethod" condition="string">descent</parameter>
<parameter name="record_configs" condition="int">0</parameter>
<parameter name="record_walkers" condition="int">2</parameter>
<parameter name="recordconfigs" condition="int">0</parameter>
<parameter name="recordwalkers" condition="int">2</parameter>
<parameter name="rewind" condition="int">0</parameter>
<parameter name="samples" condition="real">1.0000e+04</parameter>
<parameter name="samplesperthread" condition="real">6.2500e+02</parameter>
<parameter name="steps" condition="int">1</parameter>
<parameter name="stepsbetweensamples" condition="int">2</parameter>
<parameter name="store_configs" condition="int">0</parameter>
<parameter name="storeconfigs" condition="int">0</parameter>
<parameter name="sub_steps" condition="int">1</parameter>
<parameter name="substeps" condition="int">1</parameter>
<parameter name="tau" condition="au">5.0000e-02</parameter>
<parameter name="time_step" condition="au">5.0000e-02</parameter>
<parameter name="timestep" condition="au">5.0000e-02</parameter>
<parameter name="use_drift" condition="string">no</parameter>
<parameter name="usedrift" condition="string">no</parameter>
<parameter name="walkers" condition="int">1</parameter>
<parameter name="warmup_steps" condition="int">1000</parameter>
<parameter name="warmupsteps" condition="int">1000</parameter>
  DumpConfig==false Nothing (configurations, state) will be saved.
  Walker Samples are dumped every 2 steps.
</vmc>
  Set drift_modifier UNR parameter a = 1.0000e+00
  EstimatorManagerBase::add replace LocalEnergy estimator.
  Set drift_modifier UNR parameter a = 1.0000e+00
  EstimatorManagerBase::add replace LocalEnergy estimator.
<optimization-report>
<vmc stage="main" blocks="1250">
  Cannot make clones again. Use existing 1 clones
  Initial partition of walkers 0 1 
  Using Particle by Particle moves
  Walker moves without drift
  Total Sample Size   =10000
  Walker distribution on root = 0 1 
===== Memory Usage after the buffer registration =====
Available memory on node 0, free + buffers : 86682 MB
Memory footprint by rank 0 on node 0       : 76 MB
==================================================
====================================================
  SimpleFixedNodeBranch::finalize after a VMC block
    QMC counter        = 7
    time step          = 0.05
    reference energy   = -2.05731
    reference variance = 0.40176
====================================================
  Execution time = 1.6656e-01
</vmc>
<opt stage="setup">
  <log>
   Reading configurations from h5FileRoot H4.s007
  QMCCostFunction is created with 1 threads.
  Using Nonlocal PP in Opt: no
   Number of samples loaded to each thread : 625 
  VMC Eavg = -2.0608e+00
  VMC Evar = 2.0515e-01
  Total weights = 1.0000e+04
  Execution time = 2.7878e-02
  </log>
</opt>
<opt stage="main" walkers="10000">
  <log>
Iteration: 1/1
  VMC Eavg = -2.0608e+00
  VMC Evar = 2.0515e-01
  Total weights = 1.0000e+04
Number of Parameters: 39
Parameter Type step sizes:  TJF_2Body_eta=5.0000e-02 TJF_1Body_eta=1.0000e-01 F_eta=1.0000e-03 CI_eta=1.0000e-02 Orb_eta=1.0000e-03
Using RMSprop
  Execution time = 2.2043e-01
  </log>
  <optVariables href="H4.s007.opt.xml">
uu_0      -3.260524e-02                1 1 ON  0
uu_1      -8.752660e-02                1 1 ON  1
uu_2      -3.563309e-01                1 1 ON  2
uu_3      2.783249e-02                 1 1 ON  3
uu_4      -3.655287e-02                1 1 ON  4
uu_5      1.096523e-01                 1 1 ON  5
uu_6      1.613843e-01                 1 1 ON  6
uu_7      -8.512484e-03                1 1 ON  7
uu_8      8.352774e-03                 1 1 ON  8
uu_9      -4.586146e-02                1 1 ON  9
ud_0      3.082656e-01                 1 1 ON  10
ud_1      2.407405e-01                 1 1 ON  11
ud_2      -7.118425e-02                1 1 ON  12
ud_3      -1.504305e-01                1 1 ON  13
ud_4      -2.041225e-01                1 1 ON  14
ud_5      7.339171e-03                 1 1 ON  15
ud_6      2.176353e-02                 1 1 ON  16
ud_7      -2.786201e-02                1 1 ON  17
ud_8      1.507398e-02                 1 1 ON  18
ud_9      5.720875e-02                 1 1 ON  19
eH_0      -1.202262e-02                1 1 ON  20
eH_1      -2.209843e-02                1 1 ON  21
eH_2      1.865424e-02                 1 1 ON  22
eH_3      7.325229e-02                 1 1 ON  23
eH_4      1.113507e-01                 1 1 ON  24
eH_5      8.150921e-02                 1 1 ON  25
eH_6      -6.033518e-02                1 1 ON  26
eH_7      -9.315459e-02                1 1 ON  27
eH_8      -5.798279e-02                1 1 ON  28
eH_9      3.543889e-02                 1 1 ON  29
CIcoeff_1 -6.218540e-01                3 1 ON  30
CIcoeff_2 -5.477144e-02                3 1 ON  31
CIcoeff_3 6.659519e-02                 3 1 ON  32
CIcoeff_4 1.310670e-02                 3 1 ON  33
CIcoeff_5 1.658139e-02                 3 1 ON  34
CIcoeff_6 -1.092280e-02                3 1 ON  35
CIcoeff_7 -8.611383e-02                3 1 ON  36
CIcoeff_8 5.908541e-03                 3 1 ON  37
CIcoeff_9 1.494578e-03                 3 1 ON  38
  </optVariables>
   Restore the number of walkers to 1, removing 0 walkers.
</opt>
</optimization-report>
  QMC Execution time = 0.2266 secs
  Reusing QMCFixedSampleLinearOptimize
 Using QMCCostFunction::QMCCostFunction

=========================================================
  Start QMCFixedSampleLinearOptimize
  File Root H4.s008 append = no 
=========================================================
  Skip QMCDriver::putQMCInfo 
  Resetting Properties of the walkers 1 x 13

=========================================================
  Start VMC
  File Root H4.s008 append = no 
=========================================================
Using existing walkers 
  Resetting Properties of the walkers 1 x 13

<vmc function="put">
  qmc_counter=8  my_counter=8
  time step      = 5.0000e-02
  blocks         = 1250
  steps          = 1
  substeps       = 1
  current        = 0
  target samples = 1.0000e+04
  walkers/mpi    = 1

  stepsbetweensamples = 2
<parameter name="blm_length" condition="int">0</parameter>
<parameter name="blocks" condition="int">1250</parameter>
<parameter name="blocks_between_recompute" condition="int">0</parameter>
<parameter name="check_properties" condition="int">100</parameter>
<parameter name="checkproperties" condition="int">100</parameter>
<parameter name="current" condition="int">0</parameter>
<parameter name="descent_length" condition="int">2</parameter>
<parameter name="dmcwalkersperthread" condition="real">6.2500e+02</parameter>
<parameter name="hybrid_descent_samples" condition="real">2.6300e-316</parameter>
<parameter name="maxcpusecs" condition="real">3.6000e+05</parameter>
<parameter name="minmethod" condition="string">descent</parameter>
<parameter name="record_configs" condition="int">0</parameter>
<parameter name="record_walkers" condition="int">2</parameter>
<parameter name="recordconfigs" condition="int">0</parameter>
<parameter name="recordwalkers" condition="int">2</parameter>
<parameter name="rewind" condition="int">0</parameter>
<parameter name="samples" condition="real">1.0000e+04</parameter>
<parameter name="samplesperthread" condition="real">6.2500e+02</parameter>
<parameter name="steps" condition="int">1</parameter>
<parameter name="stepsbetweensamples" condition="int">2</parameter>
<parameter name="store_configs" condition="int">0</parameter>
<parameter name="storeconfigs" condition="int">0</parameter>
<parameter name="sub_steps" condition="int">1</parameter>
<parameter name="substeps" condition="int">1</parameter>
<parameter name="tau" condition="au">5.0000e-02</parameter>
<parameter name="time_step" condition="au">5.0000e-02</parameter>
<parameter name="timestep" condition="au">5.0000e-02</parameter>
<parameter name="use_drift" condition="string">no</parameter>
<parameter name="usedrift" condition="string">no</parameter>
<parameter name="walkers" condition="int">1</parameter>
<parameter name="warmup_steps" condition="int">1000</parameter>
<parameter name="warmupsteps" condition="int">1000</parameter>
  DumpConfig==false Nothing (configurations, state) will be saved.
  Walker Samples are dumped every 2 steps.
</vmc>
  Set drift_modifier UNR parameter a = 1.0000e+00
  EstimatorManagerBase::add replace LocalEnergy estimator.
  Set drift_modifier UNR parameter a = 1.0000e+00
  EstimatorManagerBase::add replace LocalEnergy estimator.
<optimization-report>
<vmc stage="main" blocks="1250">
  Cannot make clones again. Use existing 1 clones
  Initial partition of walkers 0 1 
  Using Particle by Particle moves
  Walker moves without drift
  Total Sample Size   =10000
  Walker distribution on root = 0 1 
===== Memory Usage after the buffer registration =====
Available memory on node 0, free + buffers : 86681 MB
Memory footprint by rank 0 on node 0       : 76 MB
==================================================
====================================================
  SimpleFixedNodeBranch::finalize after a VMC block
    QMC counter        = 8
    time step          = 0.05
    reference energy   = -1.98459
    reference variance = 0.0937571
====================================================
  Execution time = 1.6900e-01
</vmc>
<opt stage="setup">
  <log>
   Reading configurations from h5FileRoot H4.s008
  QMCCostFunction is created with 1 threads.
  Using Nonlocal PP in Opt: no
   Number of samples loaded to each thread : 625 
  VMC Eavg = -2.0757e+00
  VMC Evar = 1.5478e-01
  Total weights = 1.0000e+04
  Execution time = 2.6883e-02
  </log>
</opt>
<opt stage="main" walkers="10000">
  <log>
Iteration: 1/1
  VMC Eavg = -2.0757e+00
  VMC Evar = 1.5478e-01
  Total weights = 1.0000e+04
Number of Parameters: 39
Parameter Type step sizes:  TJF_2Body_eta=5.0000e-02 TJF_1Body_eta=1.0000e-01 F_eta=1.0000e-03 CI_eta=1.0000e-02 Orb_eta=1.0000e-03
Using RMSprop
  Execution time = 2.2170e-01
  </log>
  <optVariables href="H4.s008.opt.xml">
uu_0      -8.308196e-02                1 1 ON  0
uu_1      -7.463838e-02                1 1 ON  1
uu_2      -2.324081e-01                1 1 ON  2
uu_3      1.037628e-01                 1 1 ON  3
uu_4      -4.602677e-02                1 1 ON  4
uu_5      7.973263e-02                 1 1 ON  5
uu_6      1.159487e-01                 1 1 ON  6
uu_7      1.320047e-02                 1 1 ON  7
uu_8      2.921905e-02                 1 1 ON  8
uu_9      -5.536051e-02                1 1 ON  9
ud_0      3.298756e-01                 1 1 ON  10
ud_1      2.253072e-01                 1 1 ON  11
ud_2      -9.652781e-02                1 1 ON  12
ud_3      -1.148177e-01                1 1 ON  13
ud_4      -2.123160e-01                1 1 ON  14
ud_5      -4.945043e-02                1 1 ON  15
ud_6      -3.848829e-02                1 1 ON  16
ud_7      8.016773e-02                 1 1 ON  17
ud_8      -1.759582e-02                1 1 ON  18
ud_9      1.556504e-02                 1 1 ON  19
eH_0      -1.194579e-02                1 1 ON  20
eH_1      -8.314097e-02                1 1 ON  21
eH_2      -1.027700e-02                1 1 ON  22
eH_3      1.340464e-01                 1 1 ON  23
eH_4      1.760902e-01                 1 1 ON  24
eH_5      4.661614e-02                 1 1 ON  25
eH_6      3.156819e-03                 1 1 ON  26
eH_7      -5.249122e-02                1 1 ON  27
eH_8      -3.252876e-02                1 1 ON  28
eH_9      -2.797129e-02                1 1 ON  29
CIcoeff_1 -6.394926e-01                3 1 ON  30
CIcoeff_2 -4.838082e-02                3 1 ON  31
CIcoeff_3 5.207115e-02                 3 1 ON  32
CIcoeff_4 1.768753e-02                 3 1 ON  33
CIcoeff_5 2.291672e-02                 3 1 ON  34
CIcoeff_6 1.344989e-02                 3 1 ON  35
CIcoeff_7 -7.875855e-02                3 1 ON  36
CIcoeff_8 4.958087e-03                 3 1 ON  37
CIcoeff_9 2.566059e-02                 3 1 ON  38
  </optVariables>
   Restore the number of walkers to 1, removing 0 walkers.
</opt>
</optimization-report>
  QMC Execution time = 0.2273 secs
  Reusing QMCFixedSampleLinearOptimize
 Using QMCCostFunction::QMCCostFunction

=========================================================
  Start QMCFixedSampleLinearOptimize
  File Root H4.s009 append = no 
=========================================================
  Skip QMCDriver::putQMCInfo 
  Resetting Properties of the walkers 1 x 13

=========================================================
  Start VMC
  File Root H4.s009 append = no 
=========================================================
Using existing walkers 
  Resetting Properties of the walkers 1 x 13

<vmc function="put">
  qmc_counter=9  my_counter=9
  time step      = 5.0000e-02
  blocks         = 1250
  steps          = 1
  substeps       = 1
  current        = 0
  target samples = 1.0000e+04
  walkers/mpi    = 1

  stepsbetweensamples = 2
<parameter name="blm_length" condition="int">0</parameter>
<parameter name="blocks" condition="int">1250</parameter>
<parameter name="blocks_between_recompute" condition="int">0</parameter>
<parameter name="check_properties" condition="int">100</parameter>
<parameter name="checkproperties" condition="int">100</parameter>
<parameter name="current" condition="int">0</parameter>
<parameter name="descent_length" condition="int">2</parameter>
<parameter name="dmcwalkersperthread" condition="real">6.2500e+02</parameter>
<parameter name="hybrid_descent_samples" condition="real">2.6300e-316</parameter>
<parameter name="maxcpusecs" condition="real">3.6000e+05</parameter>
<parameter name="minmethod" condition="string">descent</parameter>
<parameter name="record_configs" condition="int">0</parameter>
<parameter name="record_walkers" condition="int">2</parameter>
<parameter name="recordconfigs" condition="int">0</parameter>
<parameter name="recordwalkers" condition="int">2</parameter>
<parameter name="rewind" condition="int">0</parameter>
<parameter name="samples" condition="real">1.0000e+04</parameter>
<parameter name="samplesperthread" condition="real">6.2500e+02</parameter>
<parameter name="steps" condition="int">1</parameter>
<parameter name="stepsbetweensamples" condition="int">2</parameter>
<parameter name="store_configs" condition="int">0</parameter>
<parameter name="storeconfigs" condition="int">0</parameter>
<parameter name="sub_steps" condition="int">1</parameter>
<parameter name="substeps" condition="int">1</parameter>
<parameter name="tau" condition="au">5.0000e-02</parameter>
<parameter name="time_step" condition="au">5.0000e-02</parameter>
<parameter name="timestep" condition="au">5.0000e-02</parameter>
<parameter name="use_drift" condition="string">no</parameter>
<parameter name="usedrift" condition="string">no</parameter>
<parameter name="walkers" condition="int">1</parameter>
<parameter name="warmup_steps" condition="int">1000</parameter>
<parameter name="warmupsteps" condition="int">1000</parameter>
  DumpConfig==false Nothing (configurations, state) will be saved.
  Walker Samples are dumped every 2 steps.
</vmc>
  Set drift_modifier UNR parameter a = 1.0000e+00
  EstimatorManagerBase::add replace LocalEnergy estimator.
  Set drift_modifier UNR parameter a = 1.0000e+00
  EstimatorManagerBase::add replace LocalEnergy estimator.
<optimization-report>
<vmc stage="main" blocks="1250">
  Cannot make clones again. Use existing 1 clones
  Initial partition of walkers 0 1 
  Using Particle by Particle moves
  Walker moves without drift
  Total Sample Size   =10000
  Walker distribution on root = 0 1 
===== Memory Usage after the buffer registration =====
Available memory on node 0, free + buffers : 86681 MB
Memory footprint by rank 0 on node 0       : 76 MB
==================================================
====================================================
  SimpleFixedNodeBranch::finalize after a VMC block
    QMC counter        = 9
    time step          = 0.05
    reference energy   = -2.16545
    reference variance = 0.0828169
====================================================
  Execution time = 1.7329e-01
</vmc>
<opt stage="setup">
  <log>
   Reading configurations from h5FileRoot H4.s009
  QMCCostFunction is created with 1 threads.
  Using Nonlocal PP in Opt: no
   Number of samples loaded to each thread : 625 
  VMC Eavg = -2.1002e+00
  VMC Evar = 1.4172e-01
  Total weights = 1.0000e+04
  Execution time = 2.8044e-02
  </log>
</opt>
<opt stage="main" walkers="10000">
  <log>
Iteration: 1/1
  VMC Eavg = -2.1002e+00
  VMC Evar = 1.4172e-01
  Total weights = 1.0000e+04
Number of Parameters: 39
Parameter Type step sizes:  TJF_2Body_eta=5.0000e-02 TJF_1Body_eta=1.0000e-01 F_eta=1.0000e-03 CI_eta=1.0000e-02 Orb_eta=1.0000e-03
Using RMSprop
  Execution time = 2.2938e-01
  </log>
  <optVariables href="H4.s009.opt.xml">
uu_0      -7.005449e-02                1 1 ON  0
uu_1      -7.796468e-02                1 1 ON  1
uu_2      -2.709213e-01                1 1 ON  2
uu_3      4.188224e-02                 1 1 ON  3
uu_4      -1.013023e-02                1 1 ON  4
uu_5      3.830382e-02                 1 1 ON  5
uu_6      9.026950e-02                 1 1 ON  6
uu_7      4.726238e-02                 1 1 ON  7
uu_8      -8.681948e-03                1 1 ON  8
uu_9      -1.136799e-03                1 1 ON  9
ud_0      3.261445e-01                 1 1 ON  10
ud_1      2.650232e-01                 1 1 ON  11
ud_2      -5.128093e-02                1 1 ON  12
ud_3      -1.687244e-01                1 1 ON  13
ud_4      -1.821397e-01                1 1 ON  14
ud_5      7.918851e-03                 1 1 ON  15
ud_6      -4.132439e-02                1 1 ON  16
ud_7      1.241231e-02                 1 1 ON  17
ud_8      1.255289e-02                 1 1 ON  18
ud_9      5.514623e-02                 1 1 ON  19
eH_0      -6.147363e-02                1 1 ON  20
eH_1      -2.822318e-02                1 1 ON  21
eH_2      5.526138e-02                 1 1 ON  22
eH_3      4.888414e-02                 1 1 ON  23
eH_4      1.373596e-01                 1 1 ON  24
eH_5      2.014551e-01                 1 1 ON  25
eH_6      -1.111054e-02                1 1 ON  26
eH_7      -1.262939e-01                1 1 ON  27
eH_8      -4.199689e-02                1 1 ON  28
eH_9      3.268145e-02                 1 1 ON  29
CIcoeff_1 -6.377045e-01                3 1 ON  30
CIcoeff_2 -5.113681e-02                3 1 ON  31
CIcoeff_3 5.712033e-02                 3 1 ON  32
CIcoeff_4 3.033173e-02                 3 1 ON  33
CIcoeff_5 2.314546e-02                 3 1 ON  34
CIcoeff_6 6.179821e-03                 3 1 ON  35
CIcoeff_7 -8.189836e-02                3 1 ON  36
CIcoeff_8 2.355164e-03                 3 1 ON  37
CIcoeff_9 1.952917e-02                 3 1 ON  38
  </optVariables>
   Restore the number of walkers to 1, removing 0 walkers.
</opt>
</optimization-report>
  QMC Execution time = 0.2354 secs
  Reusing QMCFixedSampleLinearOptimize
 Using QMCCostFunction::QMCCostFunction

=========================================================
  Start QMCFixedSampleLinearOptimize
  File Root H4.s010 append = no 
=========================================================
  Skip QMCDriver::putQMCInfo 
  Resetting Properties of the walkers 1 x 13

=========================================================
  Start VMC
  File Root H4.s010 append = no 
=========================================================
Using existing walkers 
  Resetting Properties of the walkers 1 x 13

<vmc function="put">
  qmc_counter=10  my_counter=10
  time step      = 5.0000e-02
  blocks         = 1250
  steps          = 1
  substeps       = 1
  current        = 0
  target samples = 1.0000e+04
  walkers/mpi    = 1

  stepsbetweensamples = 2
<parameter name="blm_length" condition="int">0</parameter>
<parameter name="blocks" condition="int">1250</parameter>
<parameter name="blocks_between_recompute" condition="int">0</parameter>
<parameter name="check_properties" condition="int">100</parameter>
<parameter name="checkproperties" condition="int">100</parameter>
<parameter name="current" condition="int">0</parameter>
<parameter name="descent_length" condition="int">2</parameter>
<parameter name="dmcwalkersperthread" condition="real">6.2500e+02</parameter>
<parameter name="hybrid_descent_samples" condition="real">2.6300e-316</parameter>
<parameter name="maxcpusecs" condition="real">3.6000e+05</parameter>
<parameter name="minmethod" condition="string">descent</parameter>
<parameter name="record_configs" condition="int">0</parameter>
<parameter name="record_walkers" condition="int">2</parameter>
[...]
  QMCCostFunction is created with 1 threads.
  Using Nonlocal PP in Opt: no
   Number of samples loaded to each thread : 625 
  VMC Eavg = -2.1255e+00
  VMC Evar = 6.1441e-02
  Total weights = 1.0000e+04
  Execution time = 2.7655e-02
  </log>
</opt>
<opt stage="main" walkers="10000">
  <log>
Iteration: 1/1
  VMC Eavg = -2.1255e+00
  VMC Evar = 6.1441e-02
  Total weights = 1.0000e+04
Number of Parameters: 39
Parameter Type step sizes:  TJF_2Body_eta=5.0000e-02 TJF_1Body_eta=1.0000e-01 F_eta=1.0000e-03 CI_eta=1.0000e-02 Orb_eta=1.0000e-03
Using RMSprop
  Execution time = 2.2724e-01
  </log>
  <optVariables href="H4.s047.opt.xml">
uu_0      -1.577668e-01                1 1 ON  0
uu_1      -1.021046e-01                1 1 ON  1
uu_2      -9.985556e-02                1 1 ON  2
uu_3      2.231249e-01                 1 1 ON  3
uu_4      4.884590e-02                 1 1 ON  4
uu_5      1.429289e-01                 1 1 ON  5
uu_6      7.474125e-02                 1 1 ON  6
uu_7      3.506821e-02                 1 1 ON  7
uu_8      -1.058542e-02                1 1 ON  8
uu_9      -1.540657e-02                1 1 ON  9
ud_0      5.142069e-01                 1 1 ON  10
ud_1      2.383754e-01                 1 1 ON  11
ud_2      1.696688e-02                 1 1 ON  12
ud_3      -9.337810e-02                1 1 ON  13
ud_4      -2.119062e-01                1 1 ON  14
ud_5      -1.408190e-01                1 1 ON  15
ud_6      -1.302471e-01                1 1 ON  16
ud_7      -3.056264e-02                1 1 ON  17
ud_8      -2.313538e-02                1 1 ON  18
ud_9      1.565541e-02                 1 1 ON  19
eH_0      -1.309513e-01                1 1 ON  20
eH_1      -1.063059e-01                1 1 ON  21
eH_2      -4.690590e-02                1 1 ON  22
eH_3      3.719983e-02                 1 1 ON  23
eH_4      1.281281e-01                 1 1 ON  24
eH_5      1.402876e-01                 1 1 ON  25
eH_6      5.543695e-02                 1 1 ON  26
eH_7      -5.825258e-03                1 1 ON  27
eH_8      -8.628336e-03                1 1 ON  28
eH_9      7.349270e-03                 1 1 ON  29
CIcoeff_1 -6.454654e-01                3 1 ON  30
CIcoeff_2 -5.411200e-02                3 1 ON  31
CIcoeff_3 4.433166e-02                 3 1 ON  32
CIcoeff_4 1.965873e-02                 3 1 ON  33
CIcoeff_5 3.721437e-02                 3 1 ON  34
CIcoeff_6 -2.049350e-02                3 1 ON  35
CIcoeff_7 -5.516617e-02                3 1 ON  36
CIcoeff_8 -9.040341e-03                3 1 ON  37
CIcoeff_9 1.026779e-02                 3 1 ON  38
  </optVariables>
   Restore the number of walkers to 1, removing 0 walkers.
</opt>
</optimization-report>
  QMC Execution time = 0.233 secs
  Reusing QMCFixedSampleLinearOptimize
 Using QMCCostFunction::QMCCostFunction

=========================================================
  Start QMCFixedSampleLinearOptimize
  File Root H4.s048 append = no 
=========================================================
  Skip QMCDriver::putQMCInfo 
  Resetting Properties of the walkers 1 x 13

=========================================================
  Start VMC
  File Root H4.s048 append = no 
=========================================================
Using existing walkers 
  Resetting Properties of the walkers 1 x 13

<vmc function="put">
  qmc_counter=48  my_counter=48
  time step      = 5.0000e-02
  blocks         = 1250
  steps          = 1
  substeps       = 1
  current        = 0
  target samples = 1.0000e+04
  walkers/mpi    = 1

  stepsbetweensamples = 2
<parameter name="blm_length" condition="int">0</parameter>
<parameter name="blocks" condition="int">1250</parameter>
<parameter name="blocks_between_recompute" condition="int">0</parameter>
<parameter name="check_properties" condition="int">100</parameter>
<parameter name="checkproperties" condition="int">100</parameter>
<parameter name="current" condition="int">0</parameter>
<parameter name="descent_length" condition="int">2</parameter>
<parameter name="dmcwalkersperthread" condition="real">6.2500e+02</parameter>
<parameter name="hybrid_descent_samples" condition="real">2.6300e-316</parameter>
<parameter name="maxcpusecs" condition="real">3.6000e+05</parameter>
<parameter name="minmethod" condition="string">descent</parameter>
<parameter name="record_configs" condition="int">0</parameter>
<parameter name="record_walkers" condition="int">2</parameter>
<parameter name="recordconfigs" condition="int">0</parameter>
<parameter name="recordwalkers" condition="int">2</parameter>
<parameter name="rewind" condition="int">0</parameter>
<parameter name="samples" condition="real">1.0000e+04</parameter>
<parameter name="samplesperthread" condition="real">6.2500e+02</parameter>
<parameter name="steps" condition="int">1</parameter>
<parameter name="stepsbetweensamples" condition="int">2</parameter>
<parameter name="store_configs" condition="int">0</parameter>
<parameter name="storeconfigs" condition="int">0</parameter>
<parameter name="sub_steps" condition="int">1</parameter>
<parameter name="substeps" condition="int">1</parameter>
<parameter name="tau" condition="au">5.0000e-02</parameter>
<parameter name="time_step" condition="au">5.0000e-02</parameter>
<parameter name="timestep" condition="au">5.0000e-02</parameter>
<parameter name="use_drift" condition="string">no</parameter>
<parameter name="usedrift" condition="string">no</parameter>
<parameter name="walkers" condition="int">1</parameter>
<parameter name="warmup_steps" condition="int">1000</parameter>
<parameter name="warmupsteps" condition="int">1000</parameter>
  DumpConfig==false Nothing (configurations, state) will be saved.
  Walker Samples are dumped every 2 steps.
</vmc>
  Set drift_modifier UNR parameter a = 1.0000e+00
  EstimatorManagerBase::add replace LocalEnergy estimator.
  Set drift_modifier UNR parameter a = 1.0000e+00
  EstimatorManagerBase::add replace LocalEnergy estimator.
<optimization-report>
<vmc stage="main" blocks="1250">
  Cannot make clones again. Use existing 1 clones
  Initial partition of walkers 0 1 
  Using Particle by Particle moves
  Walker moves without drift
  Total Sample Size   =10000
  Walker distribution on root = 0 1 
===== Memory Usage after the buffer registration =====
Available memory on node 0, free + buffers : 86661 MB
Memory footprint by rank 0 on node 0       : 76 MB
==================================================
====================================================
  SimpleFixedNodeBranch::finalize after a VMC block
    QMC counter        = 48
    time step          = 0.05
    reference energy   = -2.09955
    reference variance = 0.0202079
====================================================
  Execution time = 1.7533e-01
</vmc>
<opt stage="setup">
  <log>
   Reading configurations from h5FileRoot H4.s048
  QMCCostFunction is created with 1 threads.
  Using Nonlocal PP in Opt: no
   Number of samples loaded to each thread : 625 
  VMC Eavg = -2.1342e+00
  VMC Evar = 5.3894e-02
  Total weights = 1.0000e+04
  Execution time = 2.7580e-02
  </log>
</opt>
<opt stage="main" walkers="10000">
  <log>
Iteration: 1/1
  VMC Eavg = -2.1342e+00
  VMC Evar = 5.3894e-02
  Total weights = 1.0000e+04
Number of Parameters: 39
Parameter Type step sizes:  TJF_2Body_eta=5.0000e-02 TJF_1Body_eta=1.0000e-01 F_eta=1.0000e-03 CI_eta=1.0000e-02 Orb_eta=1.0000e-03
Using RMSprop
  Execution time = 2.3071e-01
  </log>
  <optVariables href="H4.s048.opt.xml">
uu_0      -1.577668e-01                1 1 ON  0
uu_1      -1.021046e-01                1 1 ON  1
uu_2      -1.031918e-01                1 1 ON  2
uu_3      2.279296e-01                 1 1 ON  3
uu_4      4.479763e-02                 1 1 ON  4
uu_5      1.322298e-01                 1 1 ON  5
uu_6      8.434902e-02                 1 1 ON  6
uu_7      2.788530e-02                 1 1 ON  7
uu_8      -3.454357e-03                1 1 ON  8
uu_9      -1.675098e-02                1 1 ON  9
ud_0      5.228039e-01                 1 1 ON  10
ud_1      2.388940e-01                 1 1 ON  11
ud_2      2.305288e-02                 1 1 ON  12
ud_3      -8.979176e-02                1 1 ON  13
ud_4      -2.173049e-01                1 1 ON  14
ud_5      -1.611047e-01                1 1 ON  15
ud_6      -1.238606e-01                1 1 ON  16
ud_7      -4.037303e-02                1 1 ON  17
ud_8      4.678095e-04                 1 1 ON  18
ud_9      -3.088866e-03                1 1 ON  19
eH_0      -1.512876e-01                1 1 ON  20
eH_1      -9.566263e-02                1 1 ON  21
eH_2      -3.758714e-02                1 1 ON  22
eH_3      3.425640e-02                 1 1 ON  23
eH_4      1.170270e-01                 1 1 ON  24
eH_5      1.370186e-01                 1 1 ON  25
eH_6      1.589311e-02                 1 1 ON  26
eH_7      5.067527e-03                 1 1 ON  27
eH_8      2.885585e-03                 1 1 ON  28
eH_9      -2.553736e-03                1 1 ON  29
CIcoeff_1 -6.436888e-01                3 1 ON  30
CIcoeff_2 -5.422189e-02                3 1 ON  31
CIcoeff_3 4.485773e-02                 3 1 ON  32
CIcoeff_4 1.965807e-02                 3 1 ON  33
CIcoeff_5 3.691451e-02                 3 1 ON  34
CIcoeff_6 -2.055354e-02                3 1 ON  35
CIcoeff_7 -5.518450e-02                3 1 ON  36
CIcoeff_8 -9.045749e-03                3 1 ON  37
CIcoeff_9 1.026556e-02                 3 1 ON  38
  </optVariables>
   Restore the number of walkers to 1, removing 0 walkers.
</opt>
</optimization-report>
  QMC Execution time = 0.2365 secs
  Reusing QMCFixedSampleLinearOptimize
 Using QMCCostFunction::QMCCostFunction

=========================================================
  Start QMCFixedSampleLinearOptimize
  File Root H4.s049 append = no 
=========================================================
  Skip QMCDriver::putQMCInfo 
  Resetting Properties of the walkers 1 x 13

=========================================================
  Start VMC
  File Root H4.s049 append = no 
=========================================================
Using existing walkers 
  Resetting Properties of the walkers 1 x 13

<vmc function="put">
  qmc_counter=49  my_counter=49
  time step      = 5.0000e-02
  blocks         = 1250
  steps          = 1
  substeps       = 1
  current        = 0
  target samples = 1.0000e+04
  walkers/mpi    = 1

  stepsbetweensamples = 2
<parameter name="blm_length" condition="int">0</parameter>
<parameter name="blocks" condition="int">1250</parameter>
<parameter name="blocks_between_recompute" condition="int">0</parameter>
<parameter name="check_properties" condition="int">100</parameter>
<parameter name="checkproperties" condition="int">100</parameter>
<parameter name="current" condition="int">0</parameter>
<parameter name="descent_length" condition="int">2</parameter>
<parameter name="dmcwalkersperthread" condition="real">6.2500e+02</parameter>
<parameter name="hybrid_descent_samples" condition="real">2.6300e-316</parameter>
<parameter name="maxcpusecs" condition="real">3.6000e+05</parameter>
<parameter name="minmethod" condition="string">descent</parameter>
<parameter name="record_configs" condition="int">0</parameter>
<parameter name="record_walkers" condition="int">2</parameter>
<parameter name="recordconfigs" condition="int">0</parameter>
<parameter name="recordwalkers" condition="int">2</parameter>
<parameter name="rewind" condition="int">0</parameter>
<parameter name="samples" condition="real">1.0000e+04</parameter>
<parameter name="samplesperthread" condition="real">6.2500e+02</parameter>
<parameter name="steps" condition="int">1</parameter>
<parameter name="stepsbetweensamples" condition="int">2</parameter>
<parameter name="store_configs" condition="int">0</parameter>
<parameter name="storeconfigs" condition="int">0</parameter>
<parameter name="sub_steps" condition="int">1</parameter>
<parameter name="substeps" condition="int">1</parameter>
<parameter name="tau" condition="au">5.0000e-02</parameter>
<parameter name="time_step" condition="au">5.0000e-02</parameter>
<parameter name="timestep" condition="au">5.0000e-02</parameter>
<parameter name="use_drift" condition="string">no</parameter>
<parameter name="usedrift" condition="string">no</parameter>
<parameter name="walkers" condition="int">1</parameter>
<parameter name="warmup_steps" condition="int">1000</parameter>
<parameter name="warmupsteps" condition="int">1000</parameter>
  DumpConfig==false Nothing (configurations, state) will be saved.
  Walker Samples are dumped every 2 steps.
</vmc>
  Set drift_modifier UNR parameter a = 1.0000e+00
  EstimatorManagerBase::add replace LocalEnergy estimator.
  Set drift_modifier UNR parameter a = 1.0000e+00
  EstimatorManagerBase::add replace LocalEnergy estimator.
<optimization-report>
<vmc stage="main" blocks="1250">
  Cannot make clones again. Use existing 1 clones
  Initial partition of walkers 0 1 
  Using Particle by Particle moves
  Walker moves without drift
  Total Sample Size   =10000
  Walker distribution on root = 0 1 
===== Memory Usage after the buffer registration =====
Available memory on node 0, free + buffers : 86660 MB
Memory footprint by rank 0 on node 0       : 76 MB
==================================================
====================================================
  SimpleFixedNodeBranch::finalize after a VMC block
    QMC counter        = 49
    time step          = 0.05
    reference energy   = -2.03474
    reference variance = 0.0218589
====================================================
  Execution time = 1.6488e-01
</vmc>
<opt stage="setup">
  <log>
   Reading configurations from h5FileRoot H4.s049
  QMCCostFunction is created with 1 threads.
  Using Nonlocal PP in Opt: no
   Number of samples loaded to each thread : 625 
  VMC Eavg = -2.1154e+00
  VMC Evar = 5.4436e-02
  Total weights = 1.0000e+04
  Execution time = 2.7232e-02
  </log>
</opt>
<opt stage="main" walkers="10000">
  <log>
Iteration: 1/1
  VMC Eavg = -2.1154e+00
  VMC Evar = 5.4436e-02
  Total weights = 1.0000e+04
Number of Parameters: 39
Parameter Type step sizes:  TJF_2Body_eta=5.0000e-02 TJF_1Body_eta=1.0000e-01 F_eta=1.0000e-03 CI_eta=1.0000e-02 Orb_eta=1.0000e-03
Using RMSprop
  Execution time = 2.1797e-01
  </log>
  <optVariables href="H4.s049.opt.xml">
uu_0      -1.577668e-01                1 1 ON  0
uu_1      -1.021046e-01                1 1 ON  1
uu_2      -1.052661e-01                1 1 ON  2
uu_3      2.218671e-01                 1 1 ON  3
uu_4      5.339044e-02                 1 1 ON  4
uu_5      1.404002e-01                 1 1 ON  5
uu_6      8.103076e-02                 1 1 ON  6
uu_7      2.994673e-02                 1 1 ON  7
uu_8      -7.060400e-03                1 1 ON  8
uu_9      -1.367274e-02                1 1 ON  9
ud_0      5.233887e-01                 1 1 ON  10
ud_1      2.331967e-01                 1 1 ON  11
ud_2      3.894713e-02                 1 1 ON  12
ud_3      -1.010017e-01                1 1 ON  13
ud_4      -2.154960e-01                1 1 ON  14
ud_5      -1.482619e-01                1 1 ON  15
ud_6      -1.342467e-01                1 1 ON  16
ud_7      -4.557670e-02                1 1 ON  17
ud_8      -8.513239e-03                1 1 ON  18
ud_9      -5.405353e-03                1 1 ON  19
eH_0      -1.314005e-01                1 1 ON  20
eH_1      -1.207560e-01                1 1 ON  21
eH_2      -4.490104e-02                1 1 ON  22
eH_3      4.322160e-02                 1 1 ON  23
eH_4      1.431738e-01                 1 1 ON  24
eH_5      1.335298e-01                 1 1 ON  25
eH_6      2.117481e-02                 1 1 ON  26
eH_7      1.065193e-02                 1 1 ON  27
eH_8      -1.405804e-02                1 1 ON  28
eH_9      -4.216464e-03                1 1 ON  29
CIcoeff_1 -6.412295e-01                3 1 ON  30
CIcoeff_2 -5.534471e-02                3 1 ON  31
CIcoeff_3 4.604630e-02                 3 1 ON  32
CIcoeff_4 1.981910e-02                 3 1 ON  33
CIcoeff_5 3.705086e-02                 3 1 ON  34
CIcoeff_6 -2.061998e-02                3 1 ON  35
CIcoeff_7 -5.520536e-02                3 1 ON  36
CIcoeff_8 -9.056174e-03                3 1 ON  37
CIcoeff_9 1.026522e-02                 3 1 ON  38
  </optVariables>
   Restore the number of walkers to 1, removing 0 walkers.
</opt>
</optimization-report>
  QMC Execution time = 0.2235 secs

=========================================================
  Start VMC
  File Root H4.s050 append = no 
=========================================================
Resetting walkers
  Using the current 1 walkers.
  Total number of walkers: 16
  Total weight: 16
  Resetting Properties of the walkers 1 x 13

<vmc function="put">
  qmc_counter=0  my_counter=0
  time step      = 0.05
  blocks         = 200
  steps          = 50000
  substeps       = 1
  current        = 0
  target samples = 0
  walkers/mpi    = 1

  stepsbetweensamples = 10050000
<parameter name="blm_length" condition="int">0</parameter>
<parameter name="blocks" condition="int">200</parameter>
<parameter name="blocks_between_recompute" condition="int">0</parameter>
<parameter name="check_properties" condition="int">100</parameter>
<parameter name="checkproperties" condition="int">100</parameter>
<parameter name="current" condition="int">0</parameter>
<parameter name="descent_length" condition="int">0</parameter>
<parameter name="dmcwalkersperthread" condition="real">0</parameter>
<parameter name="hybrid_descent_samples" condition="real">1.265e-321</parameter>
<parameter name="maxcpusecs" condition="real">3.6e+05</parameter>
<parameter name="minmethod" condition="string"></parameter>
<parameter name="record_configs" condition="int">0</parameter>
<parameter name="record_walkers" condition="int">10050000</parameter>
<parameter name="recordconfigs" condition="int">0</parameter>
<parameter name="recordwalkers" condition="int">10050000</parameter>
<parameter name="rewind" condition="int">0</parameter>
<parameter name="samples" condition="real">0</parameter>
<parameter name="samplesperthread" condition="real">0</parameter>
<parameter name="steps" condition="int">50000</parameter>
<parameter name="stepsbetweensamples" condition="int">10050000</parameter>
<parameter name="store_configs" condition="int">0</parameter>
<parameter name="storeconfigs" condition="int">0</parameter>
<parameter name="sub_steps" condition="int">1</parameter>
<parameter name="substeps" condition="int">1</parameter>
<parameter name="tau" condition="au">0.05</parameter>
<parameter name="time_step" condition="au">0.05</parameter>
<parameter name="timestep" condition="au">0.05</parameter>
<parameter name="use_drift" condition="string">yes</parameter>
<parameter name="usedrift" condition="string">yes</parameter>
<parameter name="walkers" condition="int">1</parameter>
<parameter name="warmup_steps" condition="int">100</parameter>
<parameter name="warmupsteps" condition="int">100</parameter>
  DumpConfig==false Nothing (configurations, state) will be saved.
  Walker Samples are dumped every 10050000 steps.
</vmc>
  Set drift_modifier UNR parameter a = 1
  Cannot make clones again. Use existing 1 clones
  Initial partition of walkers 0 1 

  Using Particle by Particle moves
  Walker moves with drift
  Total Sample Size   =0
  Walker distribution on root = 0 1 
===== Memory Usage after the buffer registration =====
Available memory on node 0, free + buffers : 86661 MB
Memory footprint by rank 0 on node 0       : 76 MB
==================================================
  Anonymous Buffer size per walker : 10664 Bytes.
MEMORY increase 0 MB VMC::resetRun
====================================================
  SimpleFixedNodeBranch::finalize after a VMC block
    QMC counter        = 50
    time step          = 0.05
    reference energy   = -2.11773
    reference variance = 0.0479116
====================================================
  QMC Execution time = 480.3 secs
  Total Execution time = 491.9 secs

=========================================================
  A new xml input file : H4.s050.cont.xml
