  Input file(s): optm-descent.xml 

=====================================================
                    QMCPACK 3.8.9

       (c) Copyright 2003-  QMCPACK developers

                    Please cite:
 J. Kim et al. J. Phys. Cond. Mat. 30 195901 (2018)
      https://doi.org/10.1088/1361-648X/aab9c3

  Git branch: pr_revisions
  Last git commit: 80c32b1fa73d125f365a4181010e1d8e8bba436b-dirty
  Last git commit date: Tue Oct 1 11:23:54 2019 -0700
  Last git commit subject: Change types to fix QMC_MIXED_PRECISION=1 build
=====================================================
  Global options 

  Total number of MPI ranks = 4
  Number of MPI groups      = 1
  MPI group ID              = 0
  Number of ranks in group  = 4
  MPI ranks per node        = 4
  OMP 1st level threads     = 1
  OMP nested threading disabled or only 1 thread on the 2nd level

  Precision used in this calculation, see definitions in the manual:
  Base precision      = double
  Full precision      = double

  Structure-of-arrays (SoA) optimization enabled

  Input XML = optm-descent.xml

  Project = descent_ref
  date    = 2019-10-01 14:06:02 PDT
  host    = airbears2-10-142-9-238.airbears2.1918.berkeley.edu

 Random Number
 -------------
  Offset for the random number seeds based on time: 954

  Range of prime numbers to use as seeds over processors and threads = 7541-7561


 Particle Set 
 ------------
  Name: ion0
  All the species have the same mass 1
  Particle set size: 4

 Particle Set 
 ------------
  Name: e
  All the species have the same mass 1
  Particle set size: 4

 Wavefunction setup: 
 ------------------- 
  Name: psi0

   Jastrow
   -------
    Name: J2   Type: Two-Body   Function: Bspline

    Radial function for species: u - u
     Number of parameters: 10
     Cusp: -0.25
     Cutoff radius: 10

     Name                        Value Type Recompute Use Index
     ---- ---------------------------- ---- --------- --- -----
     uu_0                 0.000000e+00    1         1  ON     0
     uu_1                 0.000000e+00    1         1  ON     1
     uu_2                 0.000000e+00    1         1  ON     2
     uu_3                 0.000000e+00    1         1  ON     3
     uu_4                 0.000000e+00    1         1  ON     4
     uu_5                 0.000000e+00    1         1  ON     5
     uu_6                 0.000000e+00    1         1  ON     6
     uu_7                 0.000000e+00    1         1  ON     7
     uu_8                 0.000000e+00    1         1  ON     8
     uu_9                 0.000000e+00    1         1  ON     9

    Radial function for species: u - d
     Number of parameters: 10
     Cusp: -0.5
     Cutoff radius: 10

     Name                        Value Type Recompute Use Index
     ---- ---------------------------- ---- --------- --- -----
     ud_0                 0.000000e+00    1         1  ON     0
     ud_1                 0.000000e+00    1         1  ON     1
     ud_2                 0.000000e+00    1         1  ON     2
     ud_3                 0.000000e+00    1         1  ON     3
     ud_4                 0.000000e+00    1         1  ON     4
     ud_5                 0.000000e+00    1         1  ON     5
     ud_6                 0.000000e+00    1         1  ON     6
     ud_7                 0.000000e+00    1         1  ON     7
     ud_8                 0.000000e+00    1         1  ON     8
     ud_9                 0.000000e+00    1         1  ON     9


   Jastrow
   -------
    Name: J1   Type: One-Body   Function: Bspline

    Radial function for element: H
     Number of parameters: 10
     Cusp: 0
     Cutoff radius: 10

     Name                        Value Type Recompute Use Index
     ---- ---------------------------- ---- --------- --- -----
     eH_0                 0.000000e+00    1         1  ON     0
     eH_1                 0.000000e+00    1         1  ON     1
     eH_2                 0.000000e+00    1         1  ON     2
     eH_3                 0.000000e+00    1         1  ON     3
     eH_4                 0.000000e+00    1         1  ON     4
     eH_5                 0.000000e+00    1         1  ON     5
     eH_6                 0.000000e+00    1         1  ON     6
     eH_7                 0.000000e+00    1         1  ON     7
     eH_8                 0.000000e+00    1         1  ON     8
     eH_9                 0.000000e+00    1         1  ON     9

  Created SPOSet builder named 'LCAOBSet' of type molecularorbital
  LCAO: SoaAtomicBasisSet<MultiQuintic,0>
  AO BasisSet for H
   Angular momentum expanded in cartesian functions x^lx y^ly z^lz according to Gamess
Using log grid with default values: ri = 1e-06 rf = 100 npts = 1001
   R(n,l,m,s) 0 0 0 0
   R(n,l,m,s) 1 0 0 0
   R(n,l,m,s) 2 0 0 0
   R(n,l,m,s) 3 1 0 0
   R(n,l,m,s) 4 1 0 0
   R(n,l,m,s) 5 2 0 0
Expanding Ylm (angular function) according to Gamess using cartesian gaussians
Adding 1 cartesian gaussian orbitals for l= 0
Adding 1 cartesian gaussian orbitals for l= 0
Adding 1 cartesian gaussian orbitals for l= 0
Adding 3 cartesian gaussian orbitals for l= 1
Adding 3 cartesian gaussian orbitals for l= 1
Adding 6 cartesian gaussian orbitals for l= 2
  Setting cutoff radius 11.1686

   Maximum Angular Momentum  = 2
   Number of Radial functors = 6
   Basis size                = 15

Creating SPOSet in SlaterDetBuilder::put(xmlNodePtr cur).
spo_name = spo-up
  Building SPOSet 'spo-up' with 'LCAOBSet' basis set.
Reading cusp info from : 
I/O warning : failed to load external entity ""
Could not find precomputed cusp data for spo set: spo-up
Recalculating data.
  Number of molecular orbitals to compute correction on this rank: 14
   Working on MO: 0 Center: 0
   Working on MO: 1 Center: 0
   Working on MO: 2 Center: 0
   Working on MO: 3 Center: 0
   Working on MO: 4 Center: 0
   Working on MO: 5 Center: 0
   Working on MO: 6 Center: 0
   Working on MO: 7 Center: 0
   Working on MO: 8 Center: 0
   Working on MO: 9 Center: 0
   Working on MO: 10 Center: 0
   Working on MO: 11 Center: 0
   Working on MO: 12 Center: 0
   Working on MO: 13 Center: 0
   Working on MO: 0 Center: 1
   Working on MO: 1 Center: 1
   Working on MO: 2 Center: 1
   Working on MO: 3 Center: 1
   Working on MO: 4 Center: 1
   Working on MO: 5 Center: 1
   Working on MO: 6 Center: 1
   Working on MO: 7 Center: 1
   Working on MO: 8 Center: 1
   Working on MO: 9 Center: 1
   Working on MO: 10 Center: 1
   Working on MO: 11 Center: 1
   Working on MO: 12 Center: 1
   Working on MO: 13 Center: 1
   Working on MO: 0 Center: 2
   Working on MO: 1 Center: 2
   Working on MO: 2 Center: 2
   Working on MO: 3 Center: 2
   Working on MO: 4 Center: 2
   Working on MO: 5 Center: 2
   Working on MO: 6 Center: 2
   Working on MO: 7 Center: 2
   Working on MO: 8 Center: 2
   Working on MO: 9 Center: 2
   Working on MO: 10 Center: 2
   Working on MO: 11 Center: 2
   Working on MO: 12 Center: 2
   Working on MO: 13 Center: 2
   Working on MO: 0 Center: 3
   Working on MO: 1 Center: 3
   Working on MO: 2 Center: 3
   Working on MO: 3 Center: 3
   Working on MO: 4 Center: 3
   Working on MO: 5 Center: 3
   Working on MO: 6 Center: 3
   Working on MO: 7 Center: 3
   Working on MO: 8 Center: 3
   Working on MO: 9 Center: 3
   Working on MO: 10 Center: 3
   Working on MO: 11 Center: 3
   Working on MO: 12 Center: 3
   Working on MO: 13 Center: 3
Saving resulting cusp Info xml block to: spo-up.cuspInfo.xml
Creating SPOSet in SlaterDetBuilder::put(xmlNodePtr cur).
spo_name = spo-dn
  Building SPOSet 'spo-dn' with 'LCAOBSet' basis set.
Reading cusp info from : 
Could not find precomputed cusp data for spo set: spo-dn
Recalculating data.
I/O warning : failed to load external entity ""
  Number of molecular orbitals to compute correction on this rank: 14
   Working on MO: 0 Center: 0
   Working on MO: 1 Center: 0
   Working on MO: 2 Center: 0
   Working on MO: 3 Center: 0
   Working on MO: 4 Center: 0
   Working on MO: 5 Center: 0
   Working on MO: 6 Center: 0
   Working on MO: 7 Center: 0
   Working on MO: 8 Center: 0
   Working on MO: 9 Center: 0
   Working on MO: 10 Center: 0
   Working on MO: 11 Center: 0
   Working on MO: 12 Center: 0
   Working on MO: 13 Center: 0
   Working on MO: 0 Center: 1
   Working on MO: 1 Center: 1
   Working on MO: 2 Center: 1
   Working on MO: 3 Center: 1
   Working on MO: 4 Center: 1
   Working on MO: 5 Center: 1
   Working on MO: 6 Center: 1
   Working on MO: 7 Center: 1
   Working on MO: 8 Center: 1
   Working on MO: 9 Center: 1
   Working on MO: 10 Center: 1
   Working on MO: 11 Center: 1
   Working on MO: 12 Center: 1
   Working on MO: 13 Center: 1
   Working on MO: 0 Center: 2
   Working on MO: 1 Center: 2
   Working on MO: 2 Center: 2
   Working on MO: 3 Center: 2
   Working on MO: 4 Center: 2
   Working on MO: 5 Center: 2
   Working on MO: 6 Center: 2
   Working on MO: 7 Center: 2
   Working on MO: 8 Center: 2
   Working on MO: 9 Center: 2
   Working on MO: 10 Center: 2
   Working on MO: 11 Center: 2
   Working on MO: 12 Center: 2
   Working on MO: 13 Center: 2
   Working on MO: 0 Center: 3
   Working on MO: 1 Center: 3
   Working on MO: 2 Center: 3
   Working on MO: 3 Center: 3
   Working on MO: 4 Center: 3
   Working on MO: 5 Center: 3
   Working on MO: 6 Center: 3
   Working on MO: 7 Center: 3
   Working on MO: 8 Center: 3
   Working on MO: 9 Center: 3
   Working on MO: 10 Center: 3
   Working on MO: 11 Center: 3
   Working on MO: 12 Center: 3
   Working on MO: 13 Center: 3
Saving resulting cusp Info xml block to: spo-dn.cuspInfo.xml
Using Bryan's algorithm for MultiSlaterDeterminant expansion. 
Creating base determinant (up) for MSD expansion. 
Creating base determinant (down) for MSD expansion. 
Found determinant list. 
Reading CI expansion.
Found 10 terms in the MSD expansion.
Norm of ci vector (sum of ci^2): 0.999996
Norm of qchem ci vector (sum of qchem_ci^2): 0
Found 6 unique up determinants.
Found 6 unique down determinants.
Number of terms in pairs array: 4
Number of terms in pairs array: 4
CI coefficients are optimizable. 
  Added a fermionic WaveFunctionComponent MultiSlaterDeterminantFast
  QMCHamiltonian::addOperator Kinetic to H, physical Hamiltonian 
  QMCHamiltonian::addOperator ElecElec to H, physical Hamiltonian 
QMCHamiltonian::addOperatorType added type coulomb named ElecElec
  QMCHamiltonian::addOperator IonElec to H, physical Hamiltonian 
QMCHamiltonian::addOperatorType added type coulomb named IonElec
  QMCHamiltonian::addOperator IonIon to H, physical Hamiltonian 
QMCHamiltonian::addOperatorType added type coulomb named IonIon

  QMCHamiltonian::add2WalkerProperty added
    4 to P::PropertyList 
    0 to P::Collectables 
    starting Index of the observables in P::PropertyList = 9
ParticleSetPool::randomize 
<init source="ion0" target="e">
</init>
  Initialization Execution time = 14.26 secs
=========================================================
 Summary of QMC systems 
=========================================================
ParticleSetPool has: 

  ParticleSet 'e' contains 4 particles :  u(2) d(2)

    u -4.2677158426e-01 -3.2941309632e-01  5.2983329097e-01
    u -1.9238326174e+00 -6.8749830060e+00 -3.2009243706e-01
    d  1.1944321402e+00  1.1982891446e-01  2.7125225575e-01
    d  4.3019643871e+00 -7.0516190333e+00  2.0251686697e-01

  Distance table for similar particles (A-A):
    source/target: e
    Using structure-of-arrays (SoA) data layout
    Distance computations use open boundary conditions in 3D.

  Distance table for dissimilar particles (A-B):
    source: ion0  target: e
    Using structure-of-arrays (SoA) data layout
    Distance computations use open boundary conditions in 3D.


  ParticleSet 'ion0' contains 4 particles :  H(4)

    H  0.0000000000e+00  0.0000000000e+00  0.0000000000e+00
    H  1.8897259877e+00  0.0000000000e+00  0.0000000000e+00
    H -1.8897259877e+00 -7.5589039509e+00  0.0000000000e+00
    H  3.7794519754e+00 -7.5589039509e+00  0.0000000000e+00

  Distance table for similar particles (A-A):
    source/target: ion0
    Using structure-of-arrays (SoA) data layout
    Distance computations use open boundary conditions in 3D.


  Hamiltonian h0
  Kinetic         Kinetic energy
  ElecElec        CoulombAA source/target e

  IonElec         CoulombAB source=ion0

  IonIon          CoulombAA source/target ion0


Loop execution max-interations = 9

=========================================================
  Start QMCFixedSampleLinearOptimize
  File Root descent_ref.s000 append = no 
=========================================================
  Skip QMCDriver::putQMCInfo 
  Resetting Properties of the walkers 1 x 13
  Adding 1 walkers to 0 existing sets
  Total number of walkers: 4.0000000000e+00
  Total weight: 4.0000000000e+00

=========================================================
  Start VMC
  File Root descent_ref.s000 append = no 
=========================================================
Resetting walkers
  Using the current 1 walkers.
  Total number of walkers: 4.0000000000e+00
  Total weight: 4.0000000000e+00
  Resetting Properties of the walkers 1 x 13

<vmc function="put">
  qmc_counter=0  my_counter=0
  time step      = 5.0000000000e-02
  blocks         = 2000
  steps          = 3
  substeps       = 1
  current        = 0
  target samples = 2.0000000000e+04
  walkers/mpi    = 1

  stepsbetweensamples = 1
<parameter name="blocks" condition="int">2000</parameter>
<parameter name="blocks_between_recompute" condition="int">0</parameter>
<parameter name="check_properties" condition="int">100</parameter>
<parameter name="checkproperties" condition="int">100</parameter>
<parameter name="current" condition="int">0</parameter>
<parameter name="dmcwalkersperthread" condition="real">5.0000000000e+03</parameter>
<parameter name="maxcpusecs" condition="real">3.6000000000e+05</parameter>
<parameter name="record_configs" condition="int">0</parameter>
<parameter name="record_walkers" condition="int">1</parameter>
<parameter name="recordconfigs" condition="int">0</parameter>
<parameter name="recordwalkers" condition="int">1</parameter>
<parameter name="rewind" condition="int">0</parameter>
<parameter name="samples" condition="real">2.0000000000e+04</parameter>
<parameter name="samplesperthread" condition="real">5.0000000000e+03</parameter>
<parameter name="steps" condition="int">3</parameter>
<parameter name="stepsbetweensamples" condition="int">1</parameter>
<parameter name="store_configs" condition="int">0</parameter>
<parameter name="storeconfigs" condition="int">0</parameter>
<parameter name="sub_steps" condition="int">1</parameter>
<parameter name="substeps" condition="int">1</parameter>
<parameter name="tau" condition="au">5.0000000000e-02</parameter>
<parameter name="time_step" condition="au">5.0000000000e-02</parameter>
<parameter name="timestep" condition="au">5.0000000000e-02</parameter>
<parameter name="use_drift" condition="string">no</parameter>
<parameter name="usedrift" condition="string">no</parameter>
<parameter name="walkers" condition="int">1</parameter>
<parameter name="warmup_steps" condition="int">1000</parameter>
<parameter name="warmupsteps" condition="int">1000</parameter>
  DumpConfig==false Nothing (configurations, state) will be saved.
  Walker Samples are dumped every 1 steps.
</vmc>
  Set drift_modifier UNR parameter a = 1.0000000000e+00
 Using QMCCostFunction::QMCCostFunction
  Set drift_modifier UNR parameter a = 1.0000000000e+00
<optimization-report>
<vmc stage="main" blocks="2000">
  Initial partition of walkers 0 1 

  Using Particle by Particle moves
  Walker moves without drift
  Total Sample Size   =20000
  Walker distribution on root = 0 1 
===== Memory Usage after the buffer registration =====
Available memory on node 0, free + buffers : 0 MB
Memory footprint by rank 0 on node 0       : 0 MB
==================================================
  Anonymous Buffer size per walker : 10664 Bytes.
MEMORY increase 0 MB VMC::resetRun
====================================================
  SimpleFixedNodeBranch::finalize after a VMC block
    QMC counter        = 0
    time step          = 0.05
    reference energy   = -1.8771
    reference variance = 0.0702605
====================================================
  Execution time = 2.9941e-01
</vmc>
<opt stage="setup">
  <log>
   Reading configurations from h5FileRoot descent_ref.s000
  QMCCostFunction is created with 1 threads.
  Using Nonlocal PP in Opt: no
   Number of samples loaded to each thread : 5000 
  VMC Eavg = -2.0923e+00
  VMC Evar = 1.4196e-01
  Total weights = 2.0000e+04
  Execution time = 1.6266e-01
  </log>
</opt>
<opt stage="main" walkers="20000">
  <log>
entering engine_start function
<optimization-report>
<vmc stage="main" blocks="2000">
  Cannot make clones again. Use existing 1 clones
  Initial partition of walkers 0 1 
  Using Particle by Particle moves
  Walker moves without drift
  Total Sample Size   =20000
  Walker distribution on root = 0 1 
===== Memory Usage after the buffer registration =====
Available memory on node 0, free + buffers : 0 MB
Memory footprint by rank 0 on node 0       : 0 MB
==================================================
====================================================
  SimpleFixedNodeBranch::finalize after a VMC block
    QMC counter        = 0
    time step          = 0.05
    reference energy   = -2.24238
    reference variance = 0.0168826
====================================================
  Execution time = 2.7161e-01
</vmc>
<opt stage="setup">
  <log>
     Reading configurations from h5FileRoot descent_ref.s000
  Using Nonlocal PP in Opt: no
   Number of samples loaded to each thread : 5000 
  VMC Eavg = -2.0919e+00
  VMC Evar = 1.3855e-01
  Total weights = 2.0000e+04
e_sum: -4.1838e+04
w_sum: 2.0000e+04
e_avg: -2.0919e+00
e_square_sum: 9.0291e+04
e_square_avg: 4.5146e+00
e_var: 1.3855e-01
Parameter # 0 Hamiltonian term: 0.0000e+00
Parameter # 0 Overlap term: 0.0000e+00
Parameter # 1 Hamiltonian term: 6.1457e-06
Parameter # 1 Overlap term: -9.3911e-09
Parameter # 2 Hamiltonian term: 5.5923e-04
Parameter # 2 Overlap term: -4.7084e-05
Parameter # 3 Hamiltonian term: 3.5926e-03
Parameter # 3 Overlap term: -1.2874e-03
Parameter # 4 Hamiltonian term: 1.3705e-02
Parameter # 4 Overlap term: -7.3187e-03
Parameter # 5 Hamiltonian term: 7.3432e-02
Parameter # 5 Overlap term: -2.7949e-02
Parameter # 6 Hamiltonian term: 1.7489e-01
Parameter # 6 Overlap term: -9.9453e-02
Parameter # 7 Hamiltonian term: 4.3326e-01
Parameter # 7 Overlap term: -2.2761e-01
Parameter # 8 Hamiltonian term: 8.1486e-01
Parameter # 8 Overlap term: -3.7386e-01
Parameter # 9 Hamiltonian term: 1.0116e+00
Parameter # 9 Overlap term: -4.5782e-01
Parameter # 10 Hamiltonian term: 5.2379e-02
Parameter # 10 Overlap term: -3.1552e-02
Parameter # 11 Hamiltonian term: 3.5355e-01
Parameter # 11 Overlap term: -1.8285e-01
Parameter # 12 Hamiltonian term: 6.5500e-01
Parameter # 12 Overlap term: -3.2008e-01
Parameter # 13 Hamiltonian term: 6.3450e-01
Parameter # 13 Overlap term: -2.8553e-01
Parameter # 14 Hamiltonian term: 4.7665e-01
Parameter # 14 Overlap term: -2.1959e-01
Parameter # 15 Hamiltonian term: 5.2128e-01
Parameter # 15 Overlap term: -2.4240e-01
Parameter # 16 Hamiltonian term: 6.6901e-01
Parameter # 16 Overlap term: -3.3997e-01
Parameter # 17 Hamiltonian term: 9.1098e-01
Parameter # 17 Overlap term: -4.3089e-01
Parameter # 18 Hamiltonian term: 1.1356e+00
Parameter # 18 Overlap term: -5.2567e-01
Parameter # 19 Hamiltonian term: 1.1610e+00
Parameter # 19 Overlap term: -5.5990e-01
Parameter # 20 Hamiltonian term: 1.0071e+00
Parameter # 20 Overlap term: -4.7572e-01
Parameter # 21 Hamiltonian term: 3.6721e+00
Parameter # 21 Overlap term: -1.7277e+00
Parameter # 22 Hamiltonian term: 4.1817e+00
Parameter # 22 Overlap term: -2.0015e+00
Parameter # 23 Hamiltonian term: 2.5134e+00
Parameter # 23 Overlap term: -1.2071e+00
Parameter # 24 Hamiltonian term: 1.1375e+00
Parameter # 24 Overlap term: -5.6278e-01
Parameter # 25 Hamiltonian term: 1.0490e+00
Parameter # 25 Overlap term: -5.0715e-01
Parameter # 26 Hamiltonian term: 1.7503e+00
Parameter # 26 Overlap term: -8.5073e-01
Parameter # 27 Hamiltonian term: 2.5069e+00
Parameter # 27 Overlap term: -1.2066e+00
Parameter # 28 Hamiltonian term: 4.2341e+00
Parameter # 28 Overlap term: -2.0162e+00
Parameter # 29 Hamiltonian term: 5.6488e+00
Parameter # 29 Overlap term: -2.6698e+00
Parameter # 30 Hamiltonian term: 1.2385e+00
Parameter # 30 Overlap term: -5.9413e-01
Parameter # 31 Hamiltonian term: 9.0873e-02
Parameter # 31 Overlap term: -3.2866e-02
Parameter # 32 Hamiltonian term: -5.2231e-02
Parameter # 32 Overlap term: 1.0174e-02
Parameter # 33 Hamiltonian term: -1.4827e-02
Parameter # 33 Overlap term: 6.3911e-03
Parameter # 34 Hamiltonian term: -3.9303e-02
Parameter # 34 Overlap term: 1.8581e-02
Parameter # 35 Hamiltonian term: -1.6417e-02
Parameter # 35 Overlap term: 8.8606e-03
Parameter # 36 Hamiltonian term: -2.1136e-02
Parameter # 36 Overlap term: 1.0744e-02
Parameter # 37 Hamiltonian term: 5.4103e-03
Parameter # 37 Overlap term: -3.2735e-03
Parameter # 38 Hamiltonian term: 8.3225e-04
Parameter # 38 Overlap term: 2.4310e-04
  Execution time = 1.6637e-01
  </log>
</opt>
<opt stage="main" walkers="20000">
  <log>
Number of Parameters: 39
Parameter Type step sizes:  TJF_2Body_eta=1.0000e-03 TJF_1Body_eta=1.0000e-03 F_eta=1.0000e-03 CI_eta=1.0000e-03 Orb_eta=1.0000e-03
Using RMSprop
  Execution time = 4.3805e-01
  </log>
  <optVariables href="descent_ref.s000.opt.xml">
uu_0      0.000000e+00                 1 1 ON  0
uu_1      -1.225212e-08                1 1 ON  1
uu_2      -9.214657e-07                1 1 ON  2
uu_3      -1.798955e-06                1 1 ON  3
uu_4      3.209488e-06                 1 1 ON  4
uu_5      -2.993221e-05                1 1 ON  5
uu_6      6.630363e-05                 1 1 ON  6
uu_7      8.576322e-05                 1 1 ON  7
uu_8      -6.555565e-05                1 1 ON  8
uu_9      -1.078197e-04                1 1 ON  9
ud_0      2.725032e-05                 1 1 ON  10
ud_1      5.790839e-05                 1 1 ON  11
ud_2      2.914013e-05                 1 1 ON  12
ud_3      -7.437742e-05                1 1 ON  13
ud_4      -3.459663e-05                1 1 ON  14
ud_5      -2.841189e-05                1 1 ON  15
ud_6      8.433866e-05                 1 1 ON  16
ud_7      -1.922373e-05                1 1 ON  17
ud_8      -7.197676e-05                1 1 ON  18
ud_9      2.053510e-05                 1 1 ON  19
eH_0      -2.390522e-05                1 1 ON  20
eH_1      -1.157201e-04                1 1 ON  21
eH_2      1.049759e-05                 1 1 ON  22
eH_3      2.352808e-05                 1 1 ON  23
eH_4      7.957850e-05                 1 1 ON  24
eH_5      2.381719e-05                 1 1 ON  25
eH_6      5.861416e-05                 1 1 ON  26
eH_7      3.440102e-05                 1 1 ON  27
eH_8      -3.270786e-05                1 1 ON  28
eH_9      -1.278531e-04                1 1 ON  29
CIcoeff_1 -6.303482e-01                3 1 ON  30
CIcoeff_2 -5.908764e-02                3 1 ON  31
CIcoeff_3 4.828100e-02                 3 1 ON  32
CIcoeff_4 1.388882e-02                 3 1 ON  33
CIcoeff_5 1.388677e-02                 3 1 ON  34
CIcoeff_6 5.032963e-03                 3 1 ON  35
CIcoeff_7 5.034522e-03                 3 1 ON  36
CIcoeff_8 -1.549225e-03                3 1 ON  37
CIcoeff_9 -1.554782e-03                3 1 ON  38
  </optVariables>
   Restore the number of walkers to 1, removing 0 walkers.
</opt>
</optimization-report>
  QMC Execution time = 0.9018 secs

=========================================================
  Start QMCFixedSampleLinearOptimize
  File Root descent_ref.s001 append = no 
=========================================================
  Skip QMCDriver::putQMCInfo 
  Resetting Properties of the walkers 1 x 13

=========================================================
  Start VMC
  File Root descent_ref.s001 append = no 
=========================================================
Using existing walkers 
  Resetting Properties of the walkers 1 x 13

<vmc function="put">
  qmc_counter=1  my_counter=0
  time step      = 0.05
  blocks         = 2000
  steps          = 3
  substeps       = 1
  current        = 0
  target samples = 2e+04
  walkers/mpi    = 1

  stepsbetweensamples = 1
<parameter name="blocks" condition="int">2000</parameter>
<parameter name="blocks_between_recompute" condition="int">0</parameter>
<parameter name="check_properties" condition="int">100</parameter>
<parameter name="checkproperties" condition="int">100</parameter>
<parameter name="current" condition="int">0</parameter>
<parameter name="dmcwalkersperthread" condition="real">5000</parameter>
<parameter name="maxcpusecs" condition="real">3.6e+05</parameter>
<parameter name="record_configs" condition="int">0</parameter>
<parameter name="record_walkers" condition="int">1</parameter>
<parameter name="recordconfigs" condition="int">0</parameter>
<parameter name="recordwalkers" condition="int">1</parameter>
<parameter name="rewind" condition="int">0</parameter>
<parameter name="samples" condition="real">2e+04</parameter>
<parameter name="samplesperthread" condition="real">5000</parameter>
<parameter name="steps" condition="int">3</parameter>
<parameter name="stepsbetweensamples" condition="int">1</parameter>
<parameter name="store_configs" condition="int">0</parameter>
<parameter name="storeconfigs" condition="int">0</parameter>
<parameter name="sub_steps" condition="int">1</parameter>
<parameter name="substeps" condition="int">1</parameter>
<parameter name="tau" condition="au">0.05</parameter>
<parameter name="time_step" condition="au">0.05</parameter>
<parameter name="timestep" condition="au">0.05</parameter>
<parameter name="use_drift" condition="string">no</parameter>
<parameter name="usedrift" condition="string">no</parameter>
<parameter name="walkers" condition="int">1</parameter>
<parameter name="warmup_steps" condition="int">1000</parameter>
<parameter name="warmupsteps" condition="int">1000</parameter>
  DumpConfig==false Nothing (configurations, state) will be saved.
  Walker Samples are dumped every 1 steps.
</vmc>
    Restarting, cummulative properties:
      energy     = -2.06
      variance   = 0
      r2accepted = 1e-10
      r2proposed = 1e-10
  Set drift_modifier UNR parameter a = 1
 Using QMCCostFunction::QMCCostFunction
  Set drift_modifier UNR parameter a = 1.0000e+00
  EstimatorManagerBase::add replace LocalEnergy estimator.
<optimization-report>
<vmc stage="main" blocks="2000">
  Cannot make clones again. Use existing 1 clones
  Initial partition of walkers 0 1 

  Using Particle by Particle moves
  Walker moves without drift
  Total Sample Size   =20000
  Walker distribution on root = 0 1 
===== Memory Usage after the buffer registration =====
Available memory on node 0, free + buffers : 0 MB
Memory footprint by rank 0 on node 0       : 0 MB
==================================================
  Anonymous Buffer size per walker : 10664 Bytes.
MEMORY increase 0 MB VMC::resetRun
====================================================
  SimpleFixedNodeBranch::finalize after a VMC block
    QMC counter        = 1
    time step          = 0.05
    reference energy   = -2.34434
    reference variance = 0.011471
====================================================
  Execution time = 3.1903e-01
</vmc>
<opt stage="setup">
  <log>
   Reading configurations from h5FileRoot descent_ref.s001
  QMCCostFunction is created with 1 threads.
  Using Nonlocal PP in Opt: no
   Number of samples loaded to each thread : 5000 
  VMC Eavg = -2.0811e+00
  VMC Evar = 1.4622e-01
  Total weights = 2.0000e+04
  Execution time = 1.6927e-01
  </log>
</opt>
<opt stage="main" walkers="20000">
  <log>
entering engine_start function
<optimization-report>
<vmc stage="main" blocks="2000">
  Cannot make clones again. Use existing 1 clones
  Initial partition of walkers 0 1 
  Using Particle by Particle moves
  Walker moves without drift
  Total Sample Size   =20000
  Walker distribution on root = 0 1 
===== Memory Usage after the buffer registration =====
Available memory on node 0, free + buffers : 0 MB
Memory footprint by rank 0 on node 0       : 0 MB
==================================================
====================================================
  SimpleFixedNodeBranch::finalize after a VMC block
    QMC counter        = 1
    time step          = 0.05
    reference energy   = -1.64513
    reference variance = 0.534059
====================================================
  Execution time = 2.8664e-01
</vmc>
<opt stage="setup">
  <log>
     Reading configurations from h5FileRoot descent_ref.s001
  Using Nonlocal PP in Opt: no
   Number of samples loaded to each thread : 5000 
  VMC Eavg = -2.0823e+00
  VMC Evar = 1.3931e-01
  Total weights = 2.0000e+04
e_sum: -4.1646e+04
w_sum: 2.0000e+04
e_avg: -2.0823e+00
e_square_sum: 8.9504e+04
e_square_avg: 4.4752e+00
e_var: 1.3931e-01
Parameter # 0 Hamiltonian term: 0.0000e+00
Parameter # 0 Overlap term: 0.0000e+00
Parameter # 1 Hamiltonian term: 0.0000e+00
Parameter # 1 Overlap term: 0.0000e+00
Parameter # 2 Hamiltonian term: 1.5239e-04
Parameter # 2 Overlap term: -5.0251e-06
Parameter # 3 Hamiltonian term: 6.7046e-04
Parameter # 3 Overlap term: -2.9046e-04
Parameter # 4 Hamiltonian term: 5.9541e-03
Parameter # 4 Overlap term: -2.1944e-03
Parameter # 5 Hamiltonian term: 2.9011e-02
Parameter # 5 Overlap term: -1.2555e-02
Parameter # 6 Hamiltonian term: 1.2193e-01
Parameter # 6 Overlap term: -5.1542e-02
Parameter # 7 Hamiltonian term: 3.4003e-01
Parameter # 7 Overlap term: -1.5917e-01
Parameter # 8 Hamiltonian term: 7.2012e-01
Parameter # 8 Overlap term: -3.4363e-01
Parameter # 9 Hamiltonian term: 9.8106e-01
Parameter # 9 Overlap term: -4.8353e-01
Parameter # 10 Hamiltonian term: 5.9078e-02
Parameter # 10 Overlap term: -3.4136e-02
Parameter # 11 Hamiltonian term: 3.2534e-01
Parameter # 11 Overlap term: -1.9312e-01
Parameter # 12 Hamiltonian term: 6.8258e-01
Parameter # 12 Overlap term: -3.1320e-01
Parameter # 13 Hamiltonian term: 5.8754e-01
Parameter # 13 Overlap term: -2.6760e-01
Parameter # 14 Hamiltonian term: 4.3021e-01
Parameter # 14 Overlap term: -1.8806e-01
Parameter # 15 Hamiltonian term: 4.3469e-01
Parameter # 15 Overlap term: -2.0053e-01
Parameter # 16 Hamiltonian term: 6.4784e-01
Parameter # 16 Overlap term: -2.9785e-01
Parameter # 17 Hamiltonian term: 8.6486e-01
Parameter # 17 Overlap term: -4.2374e-01
Parameter # 18 Hamiltonian term: 1.1116e+00
Parameter # 18 Overlap term: -5.3564e-01
Parameter # 19 Hamiltonian term: 1.2349e+00
Parameter # 19 Overlap term: -5.7632e-01
Parameter # 20 Hamiltonian term: 9.8664e-01
Parameter # 20 Overlap term: -4.7387e-01
Parameter # 21 Hamiltonian term: 3.6288e+00
Parameter # 21 Overlap term: -1.7291e+00
Parameter # 22 Hamiltonian term: 4.1746e+00
Parameter # 22 Overlap term: -1.9910e+00
Parameter # 23 Hamiltonian term: 2.4573e+00
Parameter # 23 Overlap term: -1.1975e+00
Parameter # 24 Hamiltonian term: 1.1149e+00
Parameter # 24 Overlap term: -5.3751e-01
Parameter # 25 Hamiltonian term: 9.5983e-01
Parameter # 25 Overlap term: -4.5768e-01
Parameter # 26 Hamiltonian term: 1.5972e+00
Parameter # 26 Overlap term: -7.5862e-01
Parameter # 27 Hamiltonian term: 2.3405e+00
Parameter # 27 Overlap term: -1.1091e+00
Parameter # 28 Hamiltonian term: 4.1847e+00
Parameter # 28 Overlap term: -1.9723e+00
Parameter # 29 Hamiltonian term: 5.6535e+00
Parameter # 29 Overlap term: -2.7709e+00
Parameter # 30 Hamiltonian term: 1.2769e+00
Parameter # 30 Overlap term: -6.1627e-01
Parameter # 31 Hamiltonian term: 1.3357e-01
Parameter # 31 Overlap term: -7.4628e-02
Parameter # 32 Hamiltonian term: -5.1202e-02
Parameter # 32 Overlap term: 1.8571e-03
Parameter # 33 Hamiltonian term: -2.8781e-02
Parameter # 33 Overlap term: 1.3747e-02
Parameter # 34 Hamiltonian term: -4.2047e-02
Parameter # 34 Overlap term: 1.9720e-02
Parameter # 35 Hamiltonian term: 2.0365e-02
Parameter # 35 Overlap term: -1.0942e-02
Parameter # 36 Hamiltonian term: -2.1066e-02
Parameter # 36 Overlap term: 1.0975e-02
Parameter # 37 Hamiltonian term: -3.1970e-03
Parameter # 37 Overlap term: 1.9466e-03
Parameter # 38 Hamiltonian term: 1.3497e-02
Parameter # 38 Overlap term: -9.3545e-03
  Execution time = 1.7370e-01
  </log>
</opt>
<opt stage="main" walkers="20000">
  <log>
Number of Parameters: 39
Parameter Type step sizes:  TJF_2Body_eta=1.0000e-03 TJF_1Body_eta=1.0000e-03 F_eta=1.0000e-03 CI_eta=1.0000e-03 Orb_eta=1.0000e-03
Using RMSprop
  Execution time = 4.6040e-01
  </log>
  <optVariables href="descent_ref.s001.opt.xml">
uu_0      0.000000e+00                 1 1 ON  0
uu_1      -8.834389e-09                1 1 ON  1
uu_2      -3.738035e-04                1 1 ON  2
uu_3      -9.053686e-05                1 1 ON  3
uu_4      -1.013575e-03                1 1 ON  4
uu_5      -2.559415e-04                1 1 ON  5
uu_6      -4.863076e-04                1 1 ON  6
uu_7      -1.831804e-04                1 1 ON  7
uu_8      -2.182713e-04                1 1 ON  8
uu_9      5.009930e-04                 1 1 ON  9
ud_0      1.055556e-03                 1 1 ON  10
ud_1      2.476899e-03                 1 1 ON  11
ud_2      -2.078601e-03                1 1 ON  12
ud_3      -1.018138e-03                1 1 ON  13
ud_4      -2.219527e-03                1 1 ON  14
ud_5      -1.391747e-03                1 1 ON  15
ud_6      -7.236584e-04                1 1 ON  16
ud_7      1.891837e-03                 1 1 ON  17
ud_8      7.574760e-05                 1 1 ON  18
ud_9      -2.740756e-03                1 1 ON  19
eH_0      -7.962650e-06                1 1 ON  20
eH_1      -6.774179e-04                1 1 ON  21
eH_2      -3.219207e-03                1 1 ON  22
eH_3      2.652820e-03                 1 1 ON  23
eH_4      1.929806e-04                 1 1 ON  24
eH_5      -6.715290e-04                1 1 ON  25
eH_6      -6.763672e-04                1 1 ON  26
eH_7      -1.867827e-03                1 1 ON  27
eH_8      -3.133624e-03                1 1 ON  28
eH_9      1.813440e-03                 1 1 ON  29
CIcoeff_1 -6.287441e-01                3 1 ON  30
CIcoeff_2 -5.792636e-02                3 1 ON  31
CIcoeff_3 4.993370e-02                 3 1 ON  32
CIcoeff_4 1.401867e-02                 3 1 ON  33
CIcoeff_5 1.609631e-02                 3 1 ON  34
CIcoeff_6 6.342390e-03                 3 1 ON  35
CIcoeff_7 3.541825e-03                 3 1 ON  36
CIcoeff_8 -2.265586e-03                3 1 ON  37
CIcoeff_9 1.496239e-03                 3 1 ON  38
  </optVariables>
   Restore the number of walkers to 1, removing 0 walkers.
</opt>
</optimization-report>
  QMC Execution time = 0.9503 secs

=========================================================
  Start QMCFixedSampleLinearOptimize
  File Root descent_ref.s002 append = no 
=========================================================
  Skip QMCDriver::putQMCInfo 
  Resetting Properties of the walkers 1 x 13

=========================================================
  Start VMC
  File Root descent_ref.s002 append = no 
=========================================================
Using existing walkers 
  Resetting Properties of the walkers 1 x 13

<vmc function="put">
  qmc_counter=2  my_counter=0
  time step      = 0.05
  blocks         = 2000
  steps          = 3
  substeps       = 1
  current        = 0
  target samples = 2e+04
  walkers/mpi    = 1

  stepsbetweensamples = 1
<parameter name="blocks" condition="int">2000</parameter>
<parameter name="blocks_between_recompute" condition="int">0</parameter>
<parameter name="check_properties" condition="int">100</parameter>
<parameter name="checkproperties" condition="int">100</parameter>
<parameter name="current" condition="int">0</parameter>
<parameter name="dmcwalkersperthread" condition="real">5000</parameter>
<parameter name="maxcpusecs" condition="real">3.6e+05</parameter>
<parameter name="record_configs" condition="int">0</parameter>
<parameter name="record_walkers" condition="int">1</parameter>
<parameter name="recordconfigs" condition="int">0</parameter>
<parameter name="recordwalkers" condition="int">1</parameter>
<parameter name="rewind" condition="int">0</parameter>
<parameter name="samples" condition="real">2e+04</parameter>
<parameter name="samplesperthread" condition="real">5000</parameter>
<parameter name="steps" condition="int">3</parameter>
<parameter name="stepsbetweensamples" condition="int">1</parameter>
<parameter name="store_configs" condition="int">0</parameter>
<parameter name="storeconfigs" condition="int">0</parameter>
<parameter name="sub_steps" condition="int">1</parameter>
<parameter name="substeps" condition="int">1</parameter>
<parameter name="tau" condition="au">0.05</parameter>
<parameter name="time_step" condition="au">0.05</parameter>
<parameter name="timestep" condition="au">0.05</parameter>
<parameter name="use_drift" condition="string">no</parameter>
<parameter name="usedrift" condition="string">no</parameter>
<parameter name="walkers" condition="int">1</parameter>
<parameter name="warmup_steps" condition="int">1000</parameter>
<parameter name="warmupsteps" condition="int">1000</parameter>
  DumpConfig==false Nothing (configurations, state) will be saved.
  Walker Samples are dumped every 1 steps.
</vmc>
    Restarting, cummulative properties:
      energy     = -2.027
      variance   = 0
      r2accepted = 1e-10
      r2proposed = 1e-10
  Set drift_modifier UNR parameter a = 1
 Using QMCCostFunction::QMCCostFunction
  Set drift_modifier UNR parameter a = 1.0000e+00
  EstimatorManagerBase::add replace LocalEnergy estimator.
<optimization-report>
<vmc stage="main" blocks="2000">
  Cannot make clones again. Use existing 1 clones
  Initial partition of walkers 0 1 

  Using Particle by Particle moves
  Walker moves without drift
  Total Sample Size   =20000
  Walker distribution on root = 0 1 
===== Memory Usage after the buffer registration =====
Available memory on node 0, free + buffers : 0 MB
Memory footprint by rank 0 on node 0       : 0 MB
==================================================
  Anonymous Buffer size per walker : 10664 Bytes.
MEMORY increase 0 MB VMC::resetRun
====================================================
  SimpleFixedNodeBranch::finalize after a VMC block
    QMC counter        = 2
    time step          = 0.05
    reference energy   = -2.05438
    reference variance = 0.0394552
====================================================
  Execution time = 3.3264e-01
</vmc>
<opt stage="setup">
  <log>
   Reading configurations from h5FileRoot descent_ref.s002
  QMCCostFunction is created with 1 threads.
  Using Nonlocal PP in Opt: no
   Number of samples loaded to each thread : 5000 
  VMC Eavg = -2.0681e+00
  VMC Evar = 1.4923e-01
  Total weights = 2.0000e+04
  Execution time = 1.6719e-01
  </log>
</opt>
<opt stage="main" walkers="20000">
  <log>
entering engine_start function
<optimization-report>
<vmc stage="main" blocks="2000">
  Cannot make clones again. Use existing 1 clones
  Initial partition of walkers 0 1 
  Using Particle by Particle moves
  Walker moves without drift
  Total Sample Size   =20000
  Walker distribution on root = 0 1 
===== Memory Usage after the buffer registration =====
Available memory on node 0, free + buffers : 0 MB
Memory footprint by rank 0 on node 0       : 0 MB
==================================================
====================================================
  SimpleFixedNodeBranch::finalize after a VMC block
    QMC counter        = 2
    time step          = 0.05
    reference energy   = -2.02205
    reference variance = 0.0106975
====================================================
  Execution time = 2.7781e-01
</vmc>
<opt stage="setup">
  <log>
     Reading configurations from h5FileRoot descent_ref.s002
  Using Nonlocal PP in Opt: no
   Number of samples loaded to each thread : 5000 
  VMC Eavg = -2.1110e+00
  VMC Evar = 1.3115e-01
  Total weights = 2.0000e+04
e_sum: -4.2220e+04
w_sum: 2.0000e+04
e_avg: -2.1110e+00
e_square_sum: 9.1751e+04
e_square_avg: 4.5876e+00
e_var: 1.3115e-01
Parameter # 0 Hamiltonian term: 0.0000e+00
Parameter # 0 Overlap term: 0.0000e+00
Parameter # 1 Hamiltonian term: 4.5284e-04
Parameter # 1 Overlap term: -4.3026e-05
Parameter # 2 Hamiltonian term: -1.5069e-04
Parameter # 2 Overlap term: -8.1059e-04
Parameter # 3 Hamiltonian term: 4.6603e-03
Parameter # 3 Overlap term: -2.4446e-03
Parameter # 4 Hamiltonian term: 1.8490e-02
Parameter # 4 Overlap term: -7.2774e-03
Parameter # 5 Hamiltonian term: 5.3087e-02
Parameter # 5 Overlap term: -2.6707e-02
Parameter # 6 Hamiltonian term: 1.7014e-01
Parameter # 6 Overlap term: -8.4478e-02
Parameter # 7 Hamiltonian term: 4.0621e-01
Parameter # 7 Overlap term: -2.1019e-01
Parameter # 8 Hamiltonian term: 8.0916e-01
Parameter # 8 Overlap term: -3.6751e-01
Parameter # 9 Hamiltonian term: 1.0332e+00
Parameter # 9 Overlap term: -4.6261e-01
Parameter # 10 Hamiltonian term: 5.0858e-02
Parameter # 10 Overlap term: -2.9403e-02
Parameter # 11 Hamiltonian term: 3.4367e-01
Parameter # 11 Overlap term: -1.7260e-01
Parameter # 12 Hamiltonian term: 6.4642e-01
Parameter # 12 Overlap term: -3.0644e-01
Parameter # 13 Hamiltonian term: 6.2632e-01
Parameter # 13 Overlap term: -2.8438e-01
Parameter # 14 Hamiltonian term: 4.8825e-01
Parameter # 14 Overlap term: -2.2912e-01
Parameter # 15 Hamiltonian term: 5.0587e-01
Parameter # 15 Overlap term: -2.4634e-01
Parameter # 16 Hamiltonian term: 7.1235e-01
Parameter # 16 Overlap term: -3.2659e-01
Parameter # 17 Hamiltonian term: 9.1998e-01
Parameter # 17 Overlap term: -4.3635e-01
Parameter # 18 Hamiltonian term: 1.1112e+00
Parameter # 18 Overlap term: -5.4363e-01
Parameter # 19 Hamiltonian term: 1.2259e+00
Parameter # 19 Overlap term: -5.6134e-01
Parameter # 20 Hamiltonian term: 1.0165e+00
Parameter # 20 Overlap term: -4.8403e-01
Parameter # 21 Hamiltonian term: 3.6941e+00
Parameter # 21 Overlap term: -1.7387e+00
Parameter # 22 Hamiltonian term: 4.2189e+00
Parameter # 22 Overlap term: -1.9857e+00
Parameter # 23 Hamiltonian term: 2.5155e+00
Parameter # 23 Overlap term: -1.1967e+00
Parameter # 24 Hamiltonian term: 1.1631e+00
Parameter # 24 Overlap term: -5.7186e-01
Parameter # 25 Hamiltonian term: 1.0610e+00
Parameter # 25 Overlap term: -5.0961e-01
Parameter # 26 Hamiltonian term: 1.7342e+00
Parameter # 26 Overlap term: -8.1389e-01
Parameter # 27 Hamiltonian term: 2.4600e+00
Parameter # 27 Overlap term: -1.1915e+00
Parameter # 28 Hamiltonian term: 4.3291e+00
Parameter # 28 Overlap term: -2.0160e+00
Parameter # 29 Hamiltonian term: 5.7104e+00
Parameter # 29 Overlap term: -2.6954e+00
Parameter # 30 Hamiltonian term: 1.3521e+00
Parameter # 30 Overlap term: -6.4686e-01
Parameter # 31 Hamiltonian term: 1.2729e-01
Parameter # 31 Overlap term: -5.2235e-02
Parameter # 32 Hamiltonian term: -9.9389e-02
Parameter # 32 Overlap term: 3.8732e-02
Parameter # 33 Hamiltonian term: -4.6015e-02
Parameter # 33 Overlap term: 2.2239e-02
Parameter # 34 Hamiltonian term: -2.6453e-02
Parameter # 34 Overlap term: 1.1914e-02
Parameter # 35 Hamiltonian term: -2.4338e-02
Parameter # 35 Overlap term: 1.2237e-02
Parameter # 36 Hamiltonian term: -2.1529e-02
Parameter # 36 Overlap term: 1.1722e-02
Parameter # 37 Hamiltonian term: -4.4643e-04
Parameter # 37 Overlap term: 7.8993e-05
Parameter # 38 Hamiltonian term: 1.8624e-03
Parameter # 38 Overlap term: -9.8608e-04
  Execution time = 1.6623e-01
  </log>
</opt>
<opt stage="main" walkers="20000">
  <log>
Number of Parameters: 39
Parameter Type step sizes:  TJF_2Body_eta=1.0000e-03 TJF_1Body_eta=1.0000e-03 F_eta=1.0000e-03 CI_eta=1.0000e-03 Orb_eta=1.0000e-03
Using RMSprop
  Execution time = 4.4408e-01
  </log>
  <optVariables href="descent_ref.s002.opt.xml">
uu_0      0.000000e+00                 1 1 ON  0
uu_1      -3.439027e-03                1 1 ON  1
uu_2      2.808802e-03                 1 1 ON  2
uu_3      6.582653e-04                 1 1 ON  3
uu_4      -2.739534e-03                1 1 ON  4
uu_5      1.109098e-04                 1 1 ON  5
uu_6      1.308109e-05                 1 1 ON  6
uu_7      9.993359e-04                 1 1 ON  7
uu_8      -1.424169e-03                1 1 ON  8
uu_9      -9.777298e-04                1 1 ON  9
ud_0      1.715200e-03                 1 1 ON  10
ud_1      2.361356e-03                 1 1 ON  11
ud_2      -1.344150e-03                1 1 ON  12
ud_3      -1.563290e-03                1 1 ON  13
ud_4      -1.768577e-03                1 1 ON  14
ud_5      2.248401e-04                 1 1 ON  15
ud_6      -1.151102e-03                1 1 ON  16
ud_7      1.395476e-03                 1 1 ON  17
ud_8      1.289962e-03                 1 1 ON  18
ud_9      -4.377672e-03                1 1 ON  19
eH_0      5.630275e-04                 1 1 ON  20
eH_1      -1.008491e-03                1 1 ON  21
eH_2      -4.612520e-03                1 1 ON  22
eH_3      2.595706e-03                 1 1 ON  23
eH_4      1.509646e-03                 1 1 ON  24
eH_5      1.040204e-03                 1 1 ON  25
eH_6      -1.132637e-03                1 1 ON  26
eH_7      1.374334e-03                 1 1 ON  27
eH_8      -4.515131e-03                1 1 ON  28
eH_9      8.201248e-04                 1 1 ON  29
CIcoeff_1 -6.266646e-01                3 1 ON  30
CIcoeff_2 -5.924301e-02                3 1 ON  31
CIcoeff_3 5.003743e-02                 3 1 ON  32
CIcoeff_4 1.315302e-02                 3 1 ON  33
CIcoeff_5 1.777397e-02                 3 1 ON  34
CIcoeff_6 5.059113e-03                 3 1 ON  35
CIcoeff_7 1.745838e-03                 3 1 ON  36
CIcoeff_8 -1.776444e-03                3 1 ON  37
CIcoeff_9 6.018856e-04                 3 1 ON  38
  </optVariables>
   Restore the number of walkers to 1, removing 0 walkers.
</opt>
</optimization-report>
  QMC Execution time = 0.9455 secs

=========================================================
  Start QMCFixedSampleLinearOptimize
  File Root descent_ref.s003 append = no 
=========================================================
  Skip QMCDriver::putQMCInfo 
  Resetting Properties of the walkers 1 x 13

=========================================================
  Start VMC
  File Root descent_ref.s003 append = no 
=========================================================
Using existing walkers 
  Resetting Properties of the walkers 1 x 13

<vmc function="put">
  qmc_counter=3  my_counter=0
  time step      = 0.05
  blocks         = 2000
  steps          = 3
  substeps       = 1
  current        = 0
  target samples = 2e+04
  walkers/mpi    = 1

  stepsbetweensamples = 1
<parameter name="blocks" condition="int">2000</parameter>
<parameter name="blocks_between_recompute" condition="int">0</parameter>
<parameter name="check_properties" condition="int">100</parameter>
<parameter name="checkproperties" condition="int">100</parameter>
<parameter name="current" condition="int">0</parameter>
<parameter name="dmcwalkersperthread" condition="real">5000</parameter>
<parameter name="maxcpusecs" condition="real">3.6e+05</parameter>
<parameter name="record_configs" condition="int">0</parameter>
<parameter name="record_walkers" condition="int">1</parameter>
<parameter name="recordconfigs" condition="int">0</parameter>
<parameter name="recordwalkers" condition="int">1</parameter>
<parameter name="rewind" condition="int">0</parameter>
<parameter name="samples" condition="real">2e+04</parameter>
<parameter name="samplesperthread" condition="real">5000</parameter>
<parameter name="steps" condition="int">3</parameter>
<parameter name="stepsbetweensamples" condition="int">1</parameter>
<parameter name="store_configs" condition="int">0</parameter>
<parameter name="storeconfigs" condition="int">0</parameter>
<parameter name="sub_steps" condition="int">1</parameter>
<parameter name="substeps" condition="int">1</parameter>
<parameter name="tau" condition="au">0.05</parameter>
<parameter name="time_step" condition="au">0.05</parameter>
<parameter name="timestep" condition="au">0.05</parameter>
<parameter name="use_drift" condition="string">no</parameter>
<parameter name="usedrift" condition="string">no</parameter>
<parameter name="walkers" condition="int">1</parameter>
<parameter name="warmup_steps" condition="int">1000</parameter>
<parameter name="warmupsteps" condition="int">1000</parameter>
  DumpConfig==false Nothing (configurations, state) will be saved.
  Walker Samples are dumped every 1 steps.
</vmc>
    Restarting, cummulative properties:
      energy     = -2.031
      variance   = 0
      r2accepted = 1e-10
      r2proposed = 1e-10
  Set drift_modifier UNR parameter a = 1
 Using QMCCostFunction::QMCCostFunction
  Set drift_modifier UNR parameter a = 1.0000e+00
  EstimatorManagerBase::add replace LocalEnergy estimator.
<optimization-report>
<vmc stage="main" blocks="2000">
  Cannot make clones again. Use existing 1 clones
  Initial partition of walkers 0 1 

  Using Particle by Particle moves
  Walker moves without drift
  Total Sample Size   =20000
  Walker distribution on root = 0 1 
===== Memory Usage after the buffer registration =====
Available memory on node 0, free + buffers : 0 MB
Memory footprint by rank 0 on node 0       : 0 MB
==================================================
  Anonymous Buffer size per walker : 10664 Bytes.
MEMORY increase 0 MB VMC::resetRun
====================================================
  SimpleFixedNodeBranch::finalize after a VMC block
    QMC counter        = 3
    time step          = 0.05
    reference energy   = -1.60454
    reference variance = 0.446545
====================================================
  Execution time = 3.1885e-01
</vmc>
<opt stage="setup">
  <log>
   Reading configurations from h5FileRoot descent_ref.s003
  QMCCostFunction is created with 1 threads.
  Using Nonlocal PP in Opt: no
   Number of samples loaded to each thread : 5000 
  VMC Eavg = -2.0768e+00
  VMC Evar = 1.2321e-01
  Total weights = 2.0000e+04
  Execution time = 1.7720e-01
  </log>
</opt>
<opt stage="main" walkers="20000">
  <log>
entering engine_start function
<optimization-report>
<vmc stage="main" blocks="2000">
  Cannot make clones again. Use existing 1 clones
  Initial partition of walkers 0 1 
  Using Particle by Particle moves
  Walker moves without drift
  Total Sample Size   =20000
  Walker distribution on root = 0 1 
===== Memory Usage after the buffer registration =====
Available memory on node 0, free + buffers : 0 MB
Memory footprint by rank 0 on node 0       : 0 MB
==================================================
====================================================
  SimpleFixedNodeBranch::finalize after a VMC block
    QMC counter        = 3
    time step          = 0.05
    reference energy   = -2.33855
    reference variance = 0.0616873
====================================================
  Execution time = 2.9335e-01
</vmc>
<opt stage="setup">
  <log>
     Reading configurations from h5FileRoot descent_ref.s003
  Using Nonlocal PP in Opt: no
   Number of samples loaded to each thread : 5000 
  VMC Eavg = -2.0813e+00
  VMC Evar = 1.2981e-01
  Total weights = 2.0000e+04
e_sum: -4.1625e+04
w_sum: 2.0000e+04
e_avg: -2.0813e+00
e_square_sum: 8.9230e+04
e_square_avg: 4.4615e+00
e_var: 1.2981e-01
Parameter # 0 Hamiltonian term: 0.0000e+00
Parameter # 0 Overlap term: 0.0000e+00
Parameter # 1 Hamiltonian term: 8.5117e-05
Parameter # 1 Overlap term: -1.6039e-06
Parameter # 2 Hamiltonian term: 7.6460e-04
Parameter # 2 Overlap term: -1.7551e-04
Parameter # 3 Hamiltonian term: 4.6402e-03
Parameter # 3 Overlap term: -1.9838e-03
Parameter # 4 Hamiltonian term: 1.5395e-02
Parameter # 4 Overlap term: -8.6826e-03
Parameter # 5 Hamiltonian term: 6.4885e-02
Parameter # 5 Overlap term: -2.6823e-02
Parameter # 6 Hamiltonian term: 1.6078e-01
Parameter # 6 Overlap term: -8.2898e-02
Parameter # 7 Hamiltonian term: 4.1290e-01
Parameter # 7 Overlap term: -1.9951e-01
Parameter # 8 Hamiltonian term: 7.5257e-01
Parameter # 8 Overlap term: -3.6723e-01
Parameter # 9 Hamiltonian term: 1.0147e+00
Parameter # 9 Overlap term: -4.6614e-01
Parameter # 10 Hamiltonian term: 5.0020e-02
Parameter # 10 Overlap term: -2.9419e-02
Parameter # 11 Hamiltonian term: 3.3347e-01
Parameter # 11 Overlap term: -1.7444e-01
Parameter # 12 Hamiltonian term: 6.6393e-01
Parameter # 12 Overlap term: -3.1944e-01
Parameter # 13 Hamiltonian term: 6.3581e-01
Parameter # 13 Overlap term: -3.0115e-01
Parameter # 14 Hamiltonian term: 5.0283e-01
Parameter # 14 Overlap term: -2.3193e-01
Parameter # 15 Hamiltonian term: 5.1685e-01
Parameter # 15 Overlap term: -2.4128e-01
Parameter # 16 Hamiltonian term: 6.4821e-01
Parameter # 16 Overlap term: -3.2522e-01
Parameter # 17 Hamiltonian term: 8.6370e-01
Parameter # 17 Overlap term: -4.0862e-01
Parameter # 18 Hamiltonian term: 1.0989e+00
Parameter # 18 Overlap term: -4.9708e-01
Parameter # 19 Hamiltonian term: 1.1354e+00
Parameter # 19 Overlap term: -5.5780e-01
Parameter # 20 Hamiltonian term: 9.6524e-01
Parameter # 20 Overlap term: -4.6496e-01
Parameter # 21 Hamiltonian term: 3.5576e+00
Parameter # 21 Overlap term: -1.6796e+00
Parameter # 22 Hamiltonian term: 4.1492e+00
Parameter # 22 Overlap term: -1.9687e+00
Parameter # 23 Hamiltonian term: 2.5041e+00
Parameter # 23 Overlap term: -1.2280e+00
Parameter # 24 Hamiltonian term: 1.2575e+00
Parameter # 24 Overlap term: -6.1542e-01
Parameter # 25 Hamiltonian term: 1.1127e+00
Parameter # 25 Overlap term: -5.7109e-01
Parameter # 26 Hamiltonian term: 1.7074e+00
Parameter # 26 Overlap term: -8.1880e-01
Parameter # 27 Hamiltonian term: 2.3891e+00
Parameter # 27 Overlap term: -1.1329e+00
Parameter # 28 Hamiltonian term: 4.1318e+00
Parameter # 28 Overlap term: -1.9704e+00
Parameter # 29 Hamiltonian term: 5.6183e+00
Parameter # 29 Overlap term: -2.6708e+00
Parameter # 30 Hamiltonian term: 1.0919e+00
Parameter # 30 Overlap term: -5.1418e-01
Parameter # 31 Hamiltonian term: 2.2203e-01
Parameter # 31 Overlap term: -1.4613e-01
Parameter # 32 Hamiltonian term: -1.7773e-01
Parameter # 32 Overlap term: 1.2503e-01
Parameter # 33 Hamiltonian term: -6.1304e-03
Parameter # 33 Overlap term: -1.2112e-04
Parameter # 34 Hamiltonian term: -1.8380e-02
Parameter # 34 Overlap term: 7.9579e-03
Parameter # 35 Hamiltonian term: -2.0411e-02
Parameter # 35 Overlap term: 1.0393e-02
Parameter # 36 Hamiltonian term: 9.4816e-03
Parameter # 36 Overlap term: -1.1227e-02
Parameter # 37 Hamiltonian term: 8.0678e-02
Parameter # 37 Overlap term: -8.0917e-02
Parameter # 38 Hamiltonian term: 2.3507e-03
Parameter # 38 Overlap term: -1.9099e-03
  Execution time = 1.7286e-01
  </log>
</opt>
<opt stage="main" walkers="20000">
  <log>
Number of Parameters: 39
Parameter Type step sizes:  TJF_2Body_eta=1.0000e-03 TJF_1Body_eta=1.0000e-03 F_eta=1.0000e-03 CI_eta=1.0000e-03 Orb_eta=1.0000e-03
Using RMSprop
  Execution time = 4.6625e-01
  </log>
  <optVariables href="descent_ref.s003.opt.xml">
uu_0      0.000000e+00                 1 1 ON  0
uu_1      -2.974235e-03                1 1 ON  1
uu_2      1.035885e-03                 1 1 ON  2
uu_3      -3.461455e-04                1 1 ON  3
uu_4      -3.565454e-04                1 1 ON  4
uu_5      -7.960760e-04                1 1 ON  5
uu_6      3.699815e-04                 1 1 ON  6
uu_7      6.722238e-04                 1 1 ON  7
uu_8      -5.110573e-04                1 1 ON  8
uu_9      -1.520284e-03                1 1 ON  9
ud_0      2.351561e-03                 1 1 ON  10
ud_1      3.099788e-03                 1 1 ON  11
ud_2      -1.287409e-03                1 1 ON  12
ud_3      -1.560672e-03                1 1 ON  13
ud_4      -2.869235e-03                1 1 ON  14
ud_5      -1.374152e-03                1 1 ON  15
ud_6      -3.606055e-05                1 1 ON  16
ud_7      -1.281139e-04                1 1 ON  17
ud_8      -1.114479e-03                1 1 ON  18
ud_9      -1.946859e-03                1 1 ON  19
eH_0      6.331821e-04                 1 1 ON  20
eH_1      -2.149741e-03                1 1 ON  21
eH_2      -6.662293e-03                1 1 ON  22
eH_3      5.034952e-03                 1 1 ON  23
eH_4      1.747514e-03                 1 1 ON  24
eH_5      3.841305e-03                 1 1 ON  25
eH_6      -1.027556e-03                1 1 ON  26
eH_7      -9.789532e-04                1 1 ON  27
eH_8      -4.651787e-03                1 1 ON  28
eH_9      -9.182393e-05                1 1 ON  29
CIcoeff_1 -6.304306e-01                3 1 ON  30
CIcoeff_2 -5.601346e-02                3 1 ON  31
CIcoeff_3 4.738634e-02                 3 1 ON  32
CIcoeff_4 1.656503e-02                 3 1 ON  33
CIcoeff_5 1.943242e-02                 3 1 ON  34
CIcoeff_6 4.663116e-03                 3 1 ON  35
CIcoeff_7 6.042979e-03                 3 1 ON  36
CIcoeff_8 1.815167e-03                 3 1 ON  37
CIcoeff_9 1.453086e-03                 3 1 ON  38
  </optVariables>
   Restore the number of walkers to 1, removing 0 walkers.
</opt>
</optimization-report>
  QMC Execution time = 0.964 secs

=========================================================
  Start QMCFixedSampleLinearOptimize
  File Root descent_ref.s004 append = no 
=========================================================
  Skip QMCDriver::putQMCInfo 
  Resetting Properties of the walkers 1 x 13

=========================================================
  Start VMC
  File Root descent_ref.s004 append = no 
=========================================================
Using existing walkers 
  Resetting Properties of the walkers 1 x 13

<vmc function="put">
  qmc_counter=4  my_counter=0
  time step      = 0.05
  blocks         = 2000
  steps          = 3
  substeps       = 1
  current        = 0
  target samples = 2e+04
  walkers/mpi    = 1

  stepsbetweensamples = 1
<parameter name="blocks" condition="int">2000</parameter>
<parameter name="blocks_between_recompute" condition="int">0</parameter>
<parameter name="check_properties" condition="int">100</parameter>
<parameter name="checkproperties" condition="int">100</parameter>
<parameter name="current" condition="int">0</parameter>
<parameter name="dmcwalkersperthread" condition="real">5000</parameter>
<parameter name="maxcpusecs" condition="real">3.6e+05</parameter>
<parameter name="record_configs" condition="int">0</parameter>
<parameter name="record_walkers" condition="int">1</parameter>
<parameter name="recordconfigs" condition="int">0</parameter>
<parameter name="recordwalkers" condition="int">1</parameter>
<parameter name="rewind" condition="int">0</parameter>
<parameter name="samples" condition="real">2e+04</parameter>
<parameter name="samplesperthread" condition="real">5000</parameter>
<parameter name="steps" condition="int">3</parameter>
<parameter name="stepsbetweensamples" condition="int">1</parameter>
<parameter name="store_configs" condition="int">0</parameter>
<parameter name="storeconfigs" condition="int">0</parameter>
<parameter name="sub_steps" condition="int">1</parameter>
<parameter name="substeps" condition="int">1</parameter>
<parameter name="tau" condition="au">0.05</parameter>
<parameter name="time_step" condition="au">0.05</parameter>
<parameter name="timestep" condition="au">0.05</parameter>
<parameter name="use_drift" condition="string">no</parameter>
<parameter name="usedrift" condition="string">no</parameter>
<parameter name="walkers" condition="int">1</parameter>
<parameter name="warmup_steps" condition="int">1000</parameter>
<parameter name="warmupsteps" condition="int">1000</parameter>
  DumpConfig==false Nothing (configurations, state) will be saved.
  Walker Samples are dumped every 1 steps.
</vmc>
    Restarting, cummulative properties:
      energy     = -2.016
      variance   = 0
      r2accepted = 1e-10
      r2proposed = 1e-10
  Set drift_modifier UNR parameter a = 1
 Using QMCCostFunction::QMCCostFunction
  Set drift_modifier UNR parameter a = 1.0000e+00
  EstimatorManagerBase::add replace LocalEnergy estimator.
<optimization-report>
<vmc stage="main" blocks="2000">
  Cannot make clones again. Use existing 1 clones
  Initial partition of walkers 0 1 

  Using Particle by Particle moves
  Walker moves without drift
  Total Sample Size   =20000
  Walker distribution on root = 0 1 
===== Memory Usage after the buffer registration =====
Available memory on node 0, free + buffers : 0 MB
Memory footprint by rank 0 on node 0       : 0 MB
==================================================
  Anonymous Buffer size per walker : 10664 Bytes.
MEMORY increase 0 MB VMC::resetRun
====================================================
  SimpleFixedNodeBranch::finalize after a VMC block
    QMC counter        = 4
    time step          = 0.05
    reference energy   = -2.08661
    reference variance = 0.00988691
====================================================
  Execution time = 3.3432e-01
</vmc>
<opt stage="setup">
  <log>
   Reading configurations from h5FileRoot descent_ref.s004
  QMCCostFunction is created with 1 threads.
  Using Nonlocal PP in Opt: no
   Number of samples loaded to each thread : 5000 
  VMC Eavg = -2.1173e+00
  VMC Evar = 1.2831e-01
  Total weights = 2.0000e+04
  Execution time = 1.6771e-01
  </log>
</opt>
<opt stage="main" walkers="20000">
  <log>
entering engine_start function
<optimization-report>
<vmc stage="main" blocks="2000">
  Cannot make clones again. Use existing 1 clones
  Initial partition of walkers 0 1 
  Using Particle by Particle moves
  Walker moves without drift
  Total Sample Size   =20000
  Walker distribution on root = 0 1 
===== Memory Usage after the buffer registration =====
Available memory on node 0, free + buffers : 0 MB
Memory footprint by rank 0 on node 0       : 0 MB
==================================================
====================================================
  SimpleFixedNodeBranch::finalize after a VMC block
    QMC counter        = 4
    time step          = 0.05
    reference energy   = -2.06524
    reference variance = 0.0898618
====================================================
  Execution time = 2.8382e-01
</vmc>
<opt stage="setup">
  <log>
     Reading configurations from h5FileRoot descent_ref.s004
  Using Nonlocal PP in Opt: no
   Number of samples loaded to each thread : 5000 
  VMC Eavg = -2.0993e+00
  VMC Evar = 1.1822e-01
  Total weights = 2.0000e+04
e_sum: -4.1986e+04
w_sum: 2.0000e+04
e_avg: -2.0993e+00
e_square_sum: 9.0508e+04
e_square_avg: 4.5254e+00
e_var: 1.1822e-01
Parameter # 0 Hamiltonian term: 0.0000e+00
Parameter # 0 Overlap term: 0.0000e+00
Parameter # 1 Hamiltonian term: 0.0000e+00
Parameter # 1 Overlap term: 0.0000e+00
Parameter # 2 Hamiltonian term: 5.3214e-04
Parameter # 2 Overlap term: -1.4263e-05
Parameter # 3 Hamiltonian term: 4.4006e-03
Parameter # 3 Overlap term: -1.0229e-03
Parameter # 4 Hamiltonian term: 1.3460e-02
Parameter # 4 Overlap term: -8.0156e-03
Parameter # 5 Hamiltonian term: 4.5790e-02
Parameter # 5 Overlap term: -2.6665e-02
Parameter # 6 Hamiltonian term: 1.7087e-01
Parameter # 6 Overlap term: -7.2738e-02
Parameter # 7 Hamiltonian term: 3.8459e-01
Parameter # 7 Overlap term: -1.9801e-01
Parameter # 8 Hamiltonian term: 7.8508e-01
Parameter # 8 Overlap term: -3.8043e-01
Parameter # 9 Hamiltonian term: 1.0181e+00
Parameter # 9 Overlap term: -4.8185e-01
Parameter # 10 Hamiltonian term: 4.7039e-02
Parameter # 10 Overlap term: -2.6333e-02
Parameter # 11 Hamiltonian term: 3.0290e-01
Parameter # 11 Overlap term: -1.5383e-01
Parameter # 12 Hamiltonian term: 6.5933e-01
Parameter # 12 Overlap term: -2.8537e-01
Parameter # 13 Hamiltonian term: 6.0115e-01
Parameter # 13 Overlap term: -2.9746e-01
Parameter # 14 Hamiltonian term: 4.6729e-01
Parameter # 14 Overlap term: -2.3670e-01
Parameter # 15 Hamiltonian term: 5.1819e-01
Parameter # 15 Overlap term: -2.3715e-01
Parameter # 16 Hamiltonian term: 6.7849e-01
Parameter # 16 Overlap term: -3.1940e-01
Parameter # 17 Hamiltonian term: 8.9843e-01
Parameter # 17 Overlap term: -4.3153e-01
Parameter # 18 Hamiltonian term: 1.0773e+00
Parameter # 18 Overlap term: -5.3688e-01
Parameter # 19 Hamiltonian term: 1.2490e+00
Parameter # 19 Overlap term: -5.4285e-01
Parameter # 20 Hamiltonian term: 9.7308e-01
Parameter # 20 Overlap term: -4.5244e-01
Parameter # 21 Hamiltonian term: 3.5870e+00
Parameter # 21 Overlap term: -1.6623e+00
Parameter # 22 Hamiltonian term: 4.2175e+00
Parameter # 22 Overlap term: -1.9880e+00
Parameter # 23 Hamiltonian term: 2.5071e+00
Parameter # 23 Overlap term: -1.2571e+00
Parameter # 24 Hamiltonian term: 1.1611e+00
Parameter # 24 Overlap term: -5.5592e-01
Parameter # 25 Hamiltonian term: 1.0069e+00
Parameter # 25 Overlap term: -4.8534e-01
Parameter # 26 Hamiltonian term: 1.7135e+00
Parameter # 26 Overlap term: -8.2955e-01
Parameter # 27 Hamiltonian term: 2.4967e+00
Parameter # 27 Overlap term: -1.2129e+00
Parameter # 28 Hamiltonian term: 4.2759e+00
Parameter # 28 Overlap term: -2.0383e+00
Parameter # 29 Hamiltonian term: 5.6656e+00
Parameter # 29 Overlap term: -2.6652e+00
Parameter # 30 Hamiltonian term: 1.4206e+00
Parameter # 30 Overlap term: -6.8140e-01
Parameter # 31 Hamiltonian term: 1.4662e-01
Parameter # 31 Overlap term: -8.2441e-02
Parameter # 32 Hamiltonian term: -1.5355e-01
Parameter # 32 Overlap term: 8.7738e-02
Parameter # 33 Hamiltonian term: -4.3048e-02
Parameter # 33 Overlap term: 2.0645e-02
Parameter # 34 Hamiltonian term: -2.4809e-02
Parameter # 34 Overlap term: 1.1595e-02
Parameter # 35 Hamiltonian term: 3.0923e-02
Parameter # 35 Overlap term: -1.8425e-02
Parameter # 36 Hamiltonian term: 6.3634e-02
Parameter # 36 Overlap term: -3.4273e-02
Parameter # 37 Hamiltonian term: -1.9073e-02
Parameter # 37 Overlap term: 1.2951e-02
Parameter # 38 Hamiltonian term: -4.4107e-03
Parameter # 38 Overlap term: 3.1407e-03
  Execution time = 1.6489e-01
  </log>
</opt>
<opt stage="main" walkers="20000">
  <log>
Number of Parameters: 39
Parameter Type step sizes:  TJF_2Body_eta=1.0000e-03 TJF_1Body_eta=1.0000e-03 F_eta=1.0000e-03 CI_eta=1.0000e-03 Orb_eta=1.0000e-03
Using RMSprop
  Execution time = 4.4876e-01
  </log>
  <optVariables href="descent_ref.s004.opt.xml">
uu_0      0.000000e+00                 1 1 ON  0
uu_1      -2.678652e-03                1 1 ON  1
uu_2      4.592415e-04                 1 1 ON  2
uu_3      -2.497444e-03                1 1 ON  3
uu_4      8.277687e-04                 1 1 ON  4
uu_5      3.979314e-04                 1 1 ON  5
uu_6      -5.380768e-04                1 1 ON  6
uu_7      1.572912e-03                 1 1 ON  7
uu_8      -1.539006e-04                1 1 ON  8
uu_9      -1.287929e-03                1 1 ON  9
ud_0      2.704059e-03                 1 1 ON  10
ud_1      3.393960e-03                 1 1 ON  11
ud_2      -4.153865e-03                1 1 ON  12
ud_3      -6.487121e-04                1 1 ON  13
ud_4      -8.075143e-04                1 1 ON  14
ud_5      -2.432446e-03                1 1 ON  15
ud_6      -6.094092e-04                1 1 ON  16
ud_7      1.257616e-03                 1 1 ON  17
ud_8      1.035462e-03                 1 1 ON  18
ud_9      -5.646496e-03                1 1 ON  19
eH_0      -1.605241e-03                1 1 ON  20
eH_1      -3.471538e-03                1 1 ON  21
eH_2      -7.612102e-03                1 1 ON  22
eH_3      7.177592e-03                 1 1 ON  23
eH_4      1.659386e-03                 1 1 ON  24
eH_5      3.103537e-03                 1 1 ON  25
eH_6      2.302690e-04                 1 1 ON  26
eH_7      1.478423e-03                 1 1 ON  27
eH_8      -4.160487e-03                1 1 ON  28
eH_9      -8.764100e-04                1 1 ON  29
CIcoeff_1 -6.281410e-01                3 1 ON  30
CIcoeff_2 -5.619531e-02                3 1 ON  31
CIcoeff_3 4.741894e-02                 3 1 ON  32
CIcoeff_4 1.523741e-02                 3 1 ON  33
CIcoeff_5 1.912263e-02                 3 1 ON  34
CIcoeff_6 7.731375e-03                 3 1 ON  35
CIcoeff_7 6.543672e-03                 3 1 ON  36
CIcoeff_8 7.221192e-05                 3 1 ON  37
CIcoeff_9 -4.332581e-05                3 1 ON  38
  </optVariables>
   Restore the number of walkers to 1, removing 0 walkers.
</opt>
</optimization-report>
  QMC Execution time = 0.9524 secs

=========================================================
  Start QMCFixedSampleLinearOptimize
  File Root descent_ref.s005 append = no 
=========================================================
  Skip QMCDriver::putQMCInfo 
  Resetting Properties of the walkers 1 x 13

=========================================================
  Start VMC
  File Root descent_ref.s005 append = no 
=========================================================
Using existing walkers 
  Resetting Properties of the walkers 1 x 13

<vmc function="put">
  qmc_counter=5  my_counter=0
  time step      = 0.05
  blocks         = 2000
  steps          = 3
  substeps       = 1
  current        = 0
  target samples = 2e+04
  walkers/mpi    = 1

  stepsbetweensamples = 1
<parameter name="blocks" condition="int">2000</parameter>
<parameter name="blocks_between_recompute" condition="int">0</parameter>
<parameter name="check_properties" condition="int">100</parameter>
<parameter name="checkproperties" condition="int">100</parameter>
<parameter name="current" condition="int">0</parameter>
<parameter name="dmcwalkersperthread" condition="real">5000</parameter>
<parameter name="maxcpusecs" condition="real">3.6e+05</parameter>
<parameter name="record_configs" condition="int">0</parameter>
<parameter name="record_walkers" condition="int">1</parameter>
<parameter name="recordconfigs" condition="int">0</parameter>
<parameter name="recordwalkers" condition="int">1</parameter>
<parameter name="rewind" condition="int">0</parameter>
<parameter name="samples" condition="real">2e+04</parameter>
<parameter name="samplesperthread" condition="real">5000</parameter>
<parameter name="steps" condition="int">3</parameter>
<parameter name="stepsbetweensamples" condition="int">1</parameter>
<parameter name="store_configs" condition="int">0</parameter>
<parameter name="storeconfigs" condition="int">0</parameter>
<parameter name="sub_steps" condition="int">1</parameter>
<parameter name="substeps" condition="int">1</parameter>
<parameter name="tau" condition="au">0.05</parameter>
<parameter name="time_step" condition="au">0.05</parameter>
<parameter name="timestep" condition="au">0.05</parameter>
<parameter name="use_drift" condition="string">no</parameter>
<parameter name="usedrift" condition="string">no</parameter>
<parameter name="walkers" condition="int">1</parameter>
<parameter name="warmup_steps" condition="int">1000</parameter>
<parameter name="warmupsteps" condition="int">1000</parameter>
  DumpConfig==false Nothing (configurations, state) will be saved.
  Walker Samples are dumped every 1 steps.
</vmc>
    Restarting, cummulative properties:
      energy     = -2.028
      variance   = 0
      r2accepted = 1e-10
      r2proposed = 1e-10
  Set drift_modifier UNR parameter a = 1
 Using QMCCostFunction::QMCCostFunction
  Set drift_modifier UNR parameter a = 1.0000e+00
  EstimatorManagerBase::add replace LocalEnergy estimator.
<optimization-report>
<vmc stage="main" blocks="2000">
  Cannot make clones again. Use existing 1 clones
  Initial partition of walkers 0 1 

  Using Particle by Particle moves
  Walker moves without drift
  Total Sample Size   =20000
  Walker distribution on root = 0 1 
===== Memory Usage after the buffer registration =====
Available memory on node 0, free + buffers : 0 MB
Memory footprint by rank 0 on node 0       : 0 MB
==================================================
  Anonymous Buffer size per walker : 10664 Bytes.
MEMORY increase 0 MB VMC::resetRun
====================================================
  SimpleFixedNodeBranch::finalize after a VMC block
    QMC counter        = 5
    time step          = 0.05
    reference energy   = -2.09068
    reference variance = 0.0130406
====================================================
  Execution time = 3.1787e-01
</vmc>
<opt stage="setup">
  <log>
   Reading configurations from h5FileRoot descent_ref.s005
  QMCCostFunction is created with 1 threads.
  Using Nonlocal PP in Opt: no
   Number of samples loaded to each thread : 5000 
  VMC Eavg = -2.1032e+00
  VMC Evar = 1.1931e-01
  Total weights = 2.0000e+04
  Execution time = 1.7715e-01
  </log>
</opt>
<opt stage="main" walkers="20000">
  <log>
entering engine_start function
<optimization-report>
<vmc stage="main" blocks="2000">
  Cannot make clones again. Use existing 1 clones
  Initial partition of walkers 0 1 
  Using Particle by Particle moves
  Walker moves without drift
  Total Sample Size   =20000
  Walker distribution on root = 0 1 
===== Memory Usage after the buffer registration =====
Available memory on node 0, free + buffers : 0 MB
Memory footprint by rank 0 on node 0       : 0 MB
==================================================
====================================================
  SimpleFixedNodeBranch::finalize after a VMC block
    QMC counter        = 5
    time step          = 0.05
    reference energy   = -1.95883
    reference variance = 0.0121114
====================================================
  Execution time = 2.7401e-01
</vmc>
<opt stage="setup">
  <log>
     Reading configurations from h5FileRoot descent_ref.s005
  Using Nonlocal PP in Opt: no
   Number of samples loaded to each thread : 5000 
  VMC Eavg = -2.1054e+00
  VMC Evar = 1.4045e-01
  Total weights = 2.0000e+04
e_sum: -4.2109e+04
w_sum: 2.0000e+04
e_avg: -2.1054e+00
e_square_sum: 9.1466e+04
e_square_avg: 4.5733e+00
e_var: 1.4045e-01
Parameter # 0 Hamiltonian term: 0.0000e+00
Parameter # 0 Overlap term: 0.0000e+00
Parameter # 1 Hamiltonian term: 5.8905e-05
Parameter # 1 Overlap term: -3.1750e-06
Parameter # 2 Hamiltonian term: 4.2848e-04
Parameter # 2 Overlap term: -1.4145e-04
Parameter # 3 Hamiltonian term: 2.5046e-03
Parameter # 3 Overlap term: -1.1606e-03
Parameter # 4 Hamiltonian term: 1.0738e-02
Parameter # 4 Overlap term: -5.1856e-03
Parameter # 5 Hamiltonian term: 3.5738e-02
Parameter # 5 Overlap term: -1.9884e-02
Parameter # 6 Hamiltonian term: 1.3337e-01
Parameter # 6 Overlap term: -6.3503e-02
Parameter # 7 Hamiltonian term: 3.7703e-01
Parameter # 7 Overlap term: -1.7214e-01
Parameter # 8 Hamiltonian term: 7.8344e-01
Parameter # 8 Overlap term: -3.5823e-01
Parameter # 9 Hamiltonian term: 1.0042e+00
Parameter # 9 Overlap term: -5.0229e-01
Parameter # 10 Hamiltonian term: 3.7163e-02
Parameter # 10 Overlap term: -3.3852e-02
Parameter # 11 Hamiltonian term: 3.5847e-01
Parameter # 11 Overlap term: -1.8450e-01
Parameter # 12 Hamiltonian term: 6.8272e-01
Parameter # 12 Overlap term: -3.1340e-01
Parameter # 13 Hamiltonian term: 5.9561e-01
Parameter # 13 Overlap term: -2.7660e-01
Parameter # 14 Hamiltonian term: 4.5360e-01
Parameter # 14 Overlap term: -1.9822e-01
Parameter # 15 Hamiltonian term: 4.6936e-01
Parameter # 15 Overlap term: -2.2231e-01
Parameter # 16 Hamiltonian term: 6.5563e-01
Parameter # 16 Overlap term: -3.3200e-01
Parameter # 17 Hamiltonian term: 9.0087e-01
Parameter # 17 Overlap term: -4.2724e-01
Parameter # 18 Hamiltonian term: 1.1445e+00
Parameter # 18 Overlap term: -5.1281e-01
Parameter # 19 Hamiltonian term: 1.1944e+00
Parameter # 19 Overlap term: -5.7020e-01
Parameter # 20 Hamiltonian term: 1.0696e+00
Parameter # 20 Overlap term: -4.8882e-01
Parameter # 21 Hamiltonian term: 3.7297e+00
Parameter # 21 Overlap term: -1.8019e+00
Parameter # 22 Hamiltonian term: 4.2277e+00
Parameter # 22 Overlap term: -2.0178e+00
Parameter # 23 Hamiltonian term: 2.4362e+00
Parameter # 23 Overlap term: -1.1368e+00
Parameter # 24 Hamiltonian term: 1.0387e+00
Parameter # 24 Overlap term: -4.8623e-01
Parameter # 25 Hamiltonian term: 9.6525e-01
Parameter # 25 Overlap term: -4.5103e-01
Parameter # 26 Hamiltonian term: 1.6712e+00
Parameter # 26 Overlap term: -8.0203e-01
Parameter # 27 Hamiltonian term: 2.4287e+00
Parameter # 27 Overlap term: -1.1609e+00
Parameter # 28 Hamiltonian term: 4.2570e+00
Parameter # 28 Overlap term: -2.0206e+00
Parameter # 29 Hamiltonian term: 5.7968e+00
Parameter # 29 Overlap term: -2.7449e+00
Parameter # 30 Hamiltonian term: 1.3199e+00
Parameter # 30 Overlap term: -6.2690e-01
Parameter # 31 Hamiltonian term: 1.4816e-01
Parameter # 31 Overlap term: -8.1805e-02
Parameter # 32 Hamiltonian term: -1.8491e-01
Parameter # 32 Overlap term: 1.0729e-01
Parameter # 33 Hamiltonian term: -3.2764e-02
Parameter # 33 Overlap term: 1.6229e-02
Parameter # 34 Hamiltonian term: -2.0766e-02
Parameter # 34 Overlap term: 8.0697e-03
Parameter # 35 Hamiltonian term: -9.3820e-03
Parameter # 35 Overlap term: 5.0377e-03
Parameter # 36 Hamiltonian term: 2.0364e-02
Parameter # 36 Overlap term: -1.1128e-02
Parameter # 37 Hamiltonian term: -3.9287e-03
Parameter # 37 Overlap term: 1.6503e-03
Parameter # 38 Hamiltonian term: 5.1030e-03
Parameter # 38 Overlap term: -2.8741e-03
  Execution time = 1.7070e-01
  </log>
</opt>
<opt stage="main" walkers="20000">
  <log>
Number of Parameters: 39
Parameter Type step sizes:  TJF_2Body_eta=1.0000e-03 TJF_1Body_eta=1.0000e-03 F_eta=1.0000e-03 CI_eta=1.0000e-03 Orb_eta=1.0000e-03
Using RMSprop
  Execution time = 4.4477e-01
  </log>
  <optVariables href="descent_ref.s005.opt.xml">
uu_0      0.000000e+00                 1 1 ON  0
uu_1      -3.174558e-03                1 1 ON  1
uu_2      5.668427e-04                 1 1 ON  2
uu_3      -1.610406e-03                1 1 ON  3
uu_4      2.178311e-04                 1 1 ON  4
uu_5      5.828578e-04                 1 1 ON  5
uu_6      -2.390570e-04                1 1 ON  6
uu_7      7.728266e-04                 1 1 ON  7
uu_8      -1.455182e-03                1 1 ON  8
uu_9      -6.593776e-05                1 1 ON  9
ud_0      4.694232e-03                 1 1 ON  10
ud_1      4.101601e-03                 1 1 ON  11
ud_2      -4.079022e-03                1 1 ON  12
ud_3      -1.411802e-03                1 1 ON  13
ud_4      -3.152278e-03                1 1 ON  14
ud_5      -1.939459e-03                1 1 ON  15
ud_6      7.369421e-04                 1 1 ON  16
ud_7      7.845747e-04                 1 1 ON  17
ud_8      -1.145114e-03                1 1 ON  18
ud_9      -4.243310e-03                1 1 ON  19
eH_0      -3.289988e-03                1 1 ON  20
eH_1      -1.612146e-03                1 1 ON  21
eH_2      -5.863123e-03                1 1 ON  22
eH_3      4.932168e-03                 1 1 ON  23
eH_4      1.109502e-03                 1 1 ON  24
eH_5      2.212434e-03                 1 1 ON  25
eH_6      4.984483e-04                 1 1 ON  26
eH_7      1.321476e-03                 1 1 ON  27
eH_8      -4.300069e-03                1 1 ON  28
eH_9      -7.101256e-04                1 1 ON  29
CIcoeff_1 -6.286241e-01                3 1 ON  30
CIcoeff_2 -5.573678e-02                3 1 ON  31
CIcoeff_3 4.663848e-02                 3 1 ON  32
CIcoeff_4 1.460543e-02                 3 1 ON  33
CIcoeff_5 2.173661e-02                 3 1 ON  34
CIcoeff_6 6.190757e-03                 3 1 ON  35
CIcoeff_7 6.495365e-03                 3 1 ON  36
CIcoeff_8 2.268818e-04                 3 1 ON  37
CIcoeff_9 9.119125e-04                 3 1 ON  38
  </optVariables>
   Restore the number of walkers to 1, removing 0 walkers.
</opt>
</optimization-report>
  QMC Execution time = 0.9414 secs

=========================================================
  Start QMCFixedSampleLinearOptimize
  File Root descent_ref.s006 append = no 
=========================================================
  Skip QMCDriver::putQMCInfo 
  Resetting Properties of the walkers 1 x 13

=========================================================
  Start VMC
  File Root descent_ref.s006 append = no 
=========================================================
Using existing walkers 
  Resetting Properties of the walkers 1 x 13

<vmc function="put">
  qmc_counter=6  my_counter=0
  time step      = 0.05
  blocks         = 2000
  steps          = 3
  substeps       = 1
  current        = 0
  target samples = 2e+04
  walkers/mpi    = 1

  stepsbetweensamples = 1
<parameter name="blocks" condition="int">2000</parameter>
[...]
Parameter # 3 Overlap term: -7.1088e-04
Parameter # 4 Hamiltonian term: 1.3950e-02
Parameter # 4 Overlap term: -5.5127e-03
Parameter # 5 Hamiltonian term: 4.2119e-02
Parameter # 5 Overlap term: -2.4078e-02
Parameter # 6 Hamiltonian term: 1.7828e-01
Parameter # 6 Overlap term: -7.2216e-02
Parameter # 7 Hamiltonian term: 3.9665e-01
Parameter # 7 Overlap term: -2.0647e-01
Parameter # 8 Hamiltonian term: 7.7611e-01
Parameter # 8 Overlap term: -3.9230e-01
Parameter # 9 Hamiltonian term: 1.0339e+00
Parameter # 9 Overlap term: -4.7352e-01
Parameter # 10 Hamiltonian term: 3.8619e-02
Parameter # 10 Overlap term: -3.1687e-02
Parameter # 11 Hamiltonian term: 3.4640e-01
Parameter # 11 Overlap term: -1.7857e-01
Parameter # 12 Hamiltonian term: 6.4938e-01
Parameter # 12 Overlap term: -3.1704e-01
Parameter # 13 Hamiltonian term: 6.1489e-01
Parameter # 13 Overlap term: -2.8421e-01
Parameter # 14 Hamiltonian term: 4.7366e-01
Parameter # 14 Overlap term: -2.0511e-01
Parameter # 15 Hamiltonian term: 4.7175e-01
Parameter # 15 Overlap term: -2.2186e-01
Parameter # 16 Hamiltonian term: 6.1838e-01
Parameter # 16 Overlap term: -3.1759e-01
Parameter # 17 Hamiltonian term: 9.0541e-01
Parameter # 17 Overlap term: -4.1206e-01
Parameter # 18 Hamiltonian term: 1.0863e+00
Parameter # 18 Overlap term: -5.2577e-01
Parameter # 19 Hamiltonian term: 1.1954e+00
Parameter # 19 Overlap term: -5.7235e-01
Parameter # 20 Hamiltonian term: 9.7829e-01
Parameter # 20 Overlap term: -4.6456e-01
Parameter # 21 Hamiltonian term: 3.6120e+00
Parameter # 21 Overlap term: -1.7068e+00
Parameter # 22 Hamiltonian term: 4.1550e+00
Parameter # 22 Overlap term: -2.0031e+00
Parameter # 23 Hamiltonian term: 2.5108e+00
Parameter # 23 Overlap term: -1.2033e+00
Parameter # 24 Hamiltonian term: 1.1417e+00
Parameter # 24 Overlap term: -5.6499e-01
Parameter # 25 Hamiltonian term: 1.0064e+00
Parameter # 25 Overlap term: -4.8499e-01
Parameter # 26 Hamiltonian term: 1.6391e+00
Parameter # 26 Overlap term: -7.9923e-01
Parameter # 27 Hamiltonian term: 2.4726e+00
Parameter # 27 Overlap term: -1.1632e+00
Parameter # 28 Hamiltonian term: 4.2313e+00
Parameter # 28 Overlap term: -2.0600e+00
Parameter # 29 Hamiltonian term: 5.6974e+00
Parameter # 29 Overlap term: -2.7242e+00
Parameter # 30 Hamiltonian term: 1.2721e+00
Parameter # 30 Overlap term: -6.0712e-01
Parameter # 31 Hamiltonian term: 1.4170e-01
Parameter # 31 Overlap term: -7.2526e-02
Parameter # 32 Hamiltonian term: -9.4528e-02
Parameter # 32 Overlap term: 3.8770e-02
Parameter # 33 Hamiltonian term: -5.0023e-02
Parameter # 33 Overlap term: 2.5071e-02
Parameter # 34 Hamiltonian term: -3.4371e-02
Parameter # 34 Overlap term: 1.6627e-02
Parameter # 35 Hamiltonian term: -7.9708e-03
Parameter # 35 Overlap term: 8.4579e-04
Parameter # 36 Hamiltonian term: 9.5896e-03
Parameter # 36 Overlap term: -4.5956e-03
Parameter # 37 Hamiltonian term: 7.1075e-03
Parameter # 37 Overlap term: -3.3865e-03
Parameter # 38 Hamiltonian term: 1.8158e-02
Parameter # 38 Overlap term: -1.5873e-02
  Execution time = 1.6391e-01
  </log>
</opt>
<opt stage="main" walkers="20000">
  <log>
Number of Parameters: 39
Parameter Type step sizes:  TJF_2Body_eta=1.0000e-03 TJF_1Body_eta=1.0000e-03 F_eta=1.0000e-03 CI_eta=1.0000e-03 Orb_eta=1.0000e-03
Using RMSprop
  Execution time = 4.4348e-01
  </log>
  <optVariables href="descent_ref.s007.opt.xml">
uu_0      0.000000e+00                 1 1 ON  0
uu_1      -3.250705e-03                1 1 ON  1
uu_2      -1.741786e-04                1 1 ON  2
uu_3      -7.358503e-04                1 1 ON  3
uu_4      -1.017320e-03                1 1 ON  4
uu_5      1.289411e-03                 1 1 ON  5
uu_6      -1.724260e-03                1 1 ON  6
uu_7      1.875194e-03                 1 1 ON  7
uu_8      -2.944321e-04                1 1 ON  8
uu_9      -1.221463e-03                1 1 ON  9
ud_0      6.329139e-03                 1 1 ON  10
ud_1      5.487478e-03                 1 1 ON  11
ud_2      -3.279762e-03                1 1 ON  12
ud_3      -2.919537e-03                1 1 ON  13
ud_4      -4.936450e-03                1 1 ON  14
ud_5      -2.063334e-03                1 1 ON  15
ud_6      8.126163e-04                 1 1 ON  16
ud_7      -2.585085e-03                1 1 ON  17
ud_8      -1.047175e-03                1 1 ON  18
ud_9      -3.678782e-03                1 1 ON  19
eH_0      -3.029729e-03                1 1 ON  20
eH_1      -3.170645e-03                1 1 ON  21
eH_2      -5.066122e-03                1 1 ON  22
eH_3      5.310848e-03                 1 1 ON  23
eH_4      2.772653e-03                 1 1 ON  24
eH_5      2.789705e-03                 1 1 ON  25
eH_6      4.394291e-04                 1 1 ON  26
eH_7      -8.603925e-04                1 1 ON  27
eH_8      -3.740196e-03                1 1 ON  28
eH_9      -4.195908e-04                1 1 ON  29
CIcoeff_1 -6.278349e-01                3 1 ON  30
CIcoeff_2 -5.724097e-02                3 1 ON  31
CIcoeff_3 4.871964e-02                 3 1 ON  32
CIcoeff_4 1.397484e-02                 3 1 ON  33
CIcoeff_5 1.992513e-02                 3 1 ON  34
CIcoeff_6 7.719752e-03                 3 1 ON  35
CIcoeff_7 5.968623e-03                 3 1 ON  36
CIcoeff_8 1.932816e-04                 3 1 ON  37
CIcoeff_9 2.829150e-03                 3 1 ON  38
  </optVariables>
   Restore the number of walkers to 1, removing 0 walkers.
</opt>
</optimization-report>
  QMC Execution time = 0.9431 secs

=========================================================
  Start QMCFixedSampleLinearOptimize
  File Root descent_ref.s008 append = no 
=========================================================
  Skip QMCDriver::putQMCInfo 
  Resetting Properties of the walkers 1 x 13

=========================================================
  Start VMC
  File Root descent_ref.s008 append = no 
=========================================================
Using existing walkers 
  Resetting Properties of the walkers 1 x 13

<vmc function="put">
  qmc_counter=8  my_counter=0
  time step      = 0.05
  blocks         = 2000
  steps          = 3
  substeps       = 1
  current        = 0
  target samples = 2e+04
  walkers/mpi    = 1

  stepsbetweensamples = 1
<parameter name="blocks" condition="int">2000</parameter>
<parameter name="blocks_between_recompute" condition="int">0</parameter>
<parameter name="check_properties" condition="int">100</parameter>
<parameter name="checkproperties" condition="int">100</parameter>
<parameter name="current" condition="int">0</parameter>
<parameter name="dmcwalkersperthread" condition="real">5000</parameter>
<parameter name="maxcpusecs" condition="real">3.6e+05</parameter>
<parameter name="record_configs" condition="int">0</parameter>
<parameter name="record_walkers" condition="int">1</parameter>
<parameter name="recordconfigs" condition="int">0</parameter>
<parameter name="recordwalkers" condition="int">1</parameter>
<parameter name="rewind" condition="int">0</parameter>
<parameter name="samples" condition="real">2e+04</parameter>
<parameter name="samplesperthread" condition="real">5000</parameter>
<parameter name="steps" condition="int">3</parameter>
<parameter name="stepsbetweensamples" condition="int">1</parameter>
<parameter name="store_configs" condition="int">0</parameter>
<parameter name="storeconfigs" condition="int">0</parameter>
<parameter name="sub_steps" condition="int">1</parameter>
<parameter name="substeps" condition="int">1</parameter>
<parameter name="tau" condition="au">0.05</parameter>
<parameter name="time_step" condition="au">0.05</parameter>
<parameter name="timestep" condition="au">0.05</parameter>
<parameter name="use_drift" condition="string">no</parameter>
<parameter name="usedrift" condition="string">no</parameter>
<parameter name="walkers" condition="int">1</parameter>
<parameter name="warmup_steps" condition="int">1000</parameter>
<parameter name="warmupsteps" condition="int">1000</parameter>
  DumpConfig==false Nothing (configurations, state) will be saved.
  Walker Samples are dumped every 1 steps.
</vmc>
    Restarting, cummulative properties:
      energy     = -2.029
      variance   = 0
      r2accepted = 1e-10
      r2proposed = 1e-10
  Set drift_modifier UNR parameter a = 1
 Using QMCCostFunction::QMCCostFunction
  Set drift_modifier UNR parameter a = 1.0000e+00
  EstimatorManagerBase::add replace LocalEnergy estimator.
<optimization-report>
<vmc stage="main" blocks="2000">
  Cannot make clones again. Use existing 1 clones
  Initial partition of walkers 0 1 

  Using Particle by Particle moves
  Walker moves without drift
  Total Sample Size   =20000
  Walker distribution on root = 0 1 
===== Memory Usage after the buffer registration =====
Available memory on node 0, free + buffers : 0 MB
Memory footprint by rank 0 on node 0       : 0 MB
==================================================
  Anonymous Buffer size per walker : 10664 Bytes.
MEMORY increase 0 MB VMC::resetRun
====================================================
  SimpleFixedNodeBranch::finalize after a VMC block
    QMC counter        = 8
    time step          = 0.05
    reference energy   = -1.46966
    reference variance = 0.763472
====================================================
  Execution time = 3.2302e-01
</vmc>
<opt stage="setup">
  <log>
   Reading configurations from h5FileRoot descent_ref.s008
  QMCCostFunction is created with 1 threads.
  Using Nonlocal PP in Opt: no
   Number of samples loaded to each thread : 5000 
  VMC Eavg = -2.0796e+00
  VMC Evar = 1.4168e-01
  Total weights = 2.0000e+04
  Execution time = 1.6423e-01
  </log>
</opt>
<opt stage="main" walkers="20000">
  <log>
entering engine_start function
<optimization-report>
<vmc stage="main" blocks="2000">
  Cannot make clones again. Use existing 1 clones
  Initial partition of walkers 0 1 
  Using Particle by Particle moves
  Walker moves without drift
  Total Sample Size   =20000
  Walker distribution on root = 0 1 
===== Memory Usage after the buffer registration =====
Available memory on node 0, free + buffers : 0 MB
Memory footprint by rank 0 on node 0       : 0 MB
==================================================
====================================================
  SimpleFixedNodeBranch::finalize after a VMC block
    QMC counter        = 8
    time step          = 0.05
    reference energy   = -2.19593
    reference variance = 0.0272253
====================================================
  Execution time = 2.9089e-01
</vmc>
<opt stage="setup">
  <log>
     Reading configurations from h5FileRoot descent_ref.s008
  Using Nonlocal PP in Opt: no
   Number of samples loaded to each thread : 5000 
  VMC Eavg = -2.0985e+00
  VMC Evar = 1.2478e-01
  Total weights = 2.0000e+04
e_sum: -4.1970e+04
w_sum: 2.0000e+04
e_avg: -2.0985e+00
e_square_sum: 9.0569e+04
e_square_avg: 4.5284e+00
e_var: 1.2478e-01
Parameter # 0 Hamiltonian term: 0.0000e+00
Parameter # 0 Overlap term: 0.0000e+00
Parameter # 1 Hamiltonian term: 3.6186e-05
Parameter # 1 Overlap term: -1.3884e-06
Parameter # 2 Hamiltonian term: 1.2534e-03
Parameter # 2 Overlap term: -1.5235e-04
Parameter # 3 Hamiltonian term: 6.5473e-03
Parameter # 3 Overlap term: -2.4198e-03
Parameter # 4 Hamiltonian term: 9.1803e-03
Parameter # 4 Overlap term: -1.2040e-02
Parameter # 5 Hamiltonian term: 6.2375e-02
Parameter # 5 Overlap term: -2.9376e-02
Parameter # 6 Hamiltonian term: 1.7482e-01
Parameter # 6 Overlap term: -7.7822e-02
Parameter # 7 Hamiltonian term: 4.2726e-01
Parameter # 7 Overlap term: -2.0376e-01
Parameter # 8 Hamiltonian term: 8.0408e-01
Parameter # 8 Overlap term: -3.9084e-01
Parameter # 9 Hamiltonian term: 1.0088e+00
Parameter # 9 Overlap term: -4.8641e-01
Parameter # 10 Hamiltonian term: 4.5852e-02
Parameter # 10 Overlap term: -2.6640e-02
Parameter # 11 Hamiltonian term: 3.3187e-01
Parameter # 11 Overlap term: -1.5996e-01
Parameter # 12 Hamiltonian term: 6.3734e-01
Parameter # 12 Overlap term: -3.0102e-01
Parameter # 13 Hamiltonian term: 6.2040e-01
Parameter # 13 Overlap term: -2.8941e-01
Parameter # 14 Hamiltonian term: 5.0448e-01
Parameter # 14 Overlap term: -2.3338e-01
Parameter # 15 Hamiltonian term: 4.7517e-01
Parameter # 15 Overlap term: -2.5548e-01
Parameter # 16 Hamiltonian term: 7.0476e-01
Parameter # 16 Overlap term: -3.1700e-01
Parameter # 17 Hamiltonian term: 8.5856e-01
Parameter # 17 Overlap term: -4.1129e-01
Parameter # 18 Hamiltonian term: 1.1091e+00
Parameter # 18 Overlap term: -5.1142e-01
Parameter # 19 Hamiltonian term: 1.1663e+00
Parameter # 19 Overlap term: -5.5244e-01
Parameter # 20 Hamiltonian term: 9.9801e-01
Parameter # 20 Overlap term: -4.5570e-01
Parameter # 21 Hamiltonian term: 3.6165e+00
Parameter # 21 Overlap term: -1.6888e+00
Parameter # 22 Hamiltonian term: 4.1765e+00
Parameter # 22 Overlap term: -1.9953e+00
Parameter # 23 Hamiltonian term: 2.5278e+00
Parameter # 23 Overlap term: -1.2259e+00
Parameter # 24 Hamiltonian term: 1.1819e+00
Parameter # 24 Overlap term: -5.8013e-01
Parameter # 25 Hamiltonian term: 1.0568e+00
Parameter # 25 Overlap term: -5.2274e-01
Parameter # 26 Hamiltonian term: 1.7058e+00
Parameter # 26 Overlap term: -8.2600e-01
Parameter # 27 Hamiltonian term: 2.4584e+00
Parameter # 27 Overlap term: -1.1770e+00
Parameter # 28 Hamiltonian term: 4.2848e+00
Parameter # 28 Overlap term: -2.0201e+00
Parameter # 29 Hamiltonian term: 5.6225e+00
Parameter # 29 Overlap term: -2.6626e+00
Parameter # 30 Hamiltonian term: 1.3547e+00
Parameter # 30 Overlap term: -6.4894e-01
Parameter # 31 Hamiltonian term: 2.5502e-01
Parameter # 31 Overlap term: -1.6262e-01
Parameter # 32 Hamiltonian term: -2.5312e-01
Parameter # 32 Overlap term: 1.7141e-01
Parameter # 33 Hamiltonian term: 2.3391e-02
Parameter # 33 Overlap term: -1.5564e-02
Parameter # 34 Hamiltonian term: -4.7961e-02
Parameter # 34 Overlap term: 2.3475e-02
Parameter # 35 Hamiltonian term: -2.7229e-02
Parameter # 35 Overlap term: 1.3915e-02
Parameter # 36 Hamiltonian term: 5.6219e-03
Parameter # 36 Overlap term: -2.4420e-03
Parameter # 37 Hamiltonian term: 3.6920e-03
Parameter # 37 Overlap term: -2.0780e-03
Parameter # 38 Hamiltonian term: 5.1074e-03
Parameter # 38 Overlap term: -2.9305e-03
  Execution time = 1.7361e-01
  </log>
</opt>
<opt stage="main" walkers="20000">
  <log>
Number of Parameters: 39
Parameter Type step sizes:  TJF_2Body_eta=1.0000e-03 TJF_1Body_eta=1.0000e-03 F_eta=1.0000e-03 CI_eta=1.0000e-03 Orb_eta=1.0000e-03
Using RMSprop
  Execution time = 4.6454e-01
  </log>
  <optVariables href="descent_ref.s008.opt.xml">
uu_0      0.000000e+00                 1 1 ON  0
uu_1      -3.501232e-03                1 1 ON  1
uu_2      -1.384815e-03                1 1 ON  2
uu_3      -1.386439e-03                1 1 ON  3
uu_4      2.274384e-03                 1 1 ON  4
uu_5      9.432998e-04                 1 1 ON  5
uu_6      -1.726057e-03                1 1 ON  6
uu_7      1.485783e-03                 1 1 ON  7
uu_8      -3.345175e-04                1 1 ON  8
uu_9      -5.752159e-04                1 1 ON  9
ud_0      6.268956e-03                 1 1 ON  10
ud_1      5.307142e-03                 1 1 ON  11
ud_2      -3.751051e-03                1 1 ON  12
ud_3      -3.028776e-03                1 1 ON  13
ud_4      -4.776414e-03                1 1 ON  14
ud_5      6.620599e-04                 1 1 ON  15
ud_6      -6.304523e-04                1 1 ON  16
ud_7      -1.266430e-03                1 1 ON  17
ud_8      -1.947536e-03                1 1 ON  18
ud_9      -3.845225e-03                1 1 ON  19
eH_0      -4.732990e-03                1 1 ON  20
eH_1      -3.944597e-03                1 1 ON  21
eH_2      -4.986311e-03                1 1 ON  22
eH_3      6.330583e-03                 1 1 ON  23
eH_4      3.327098e-03                 1 1 ON  24
eH_5      4.232173e-03                 1 1 ON  25
eH_6      9.986631e-04                 1 1 ON  26
eH_7      1.610629e-04                 1 1 ON  27
eH_8      -5.445652e-03                1 1 ON  28
eH_9      -8.679483e-04                1 1 ON  29
CIcoeff_1 -6.269774e-01                3 1 ON  30
CIcoeff_2 -5.564932e-02                3 1 ON  31
CIcoeff_3 4.689034e-02                 3 1 ON  32
CIcoeff_4 1.685402e-02                 3 1 ON  33
CIcoeff_5 1.908752e-02                 3 1 ON  34
CIcoeff_6 6.414821e-03                 3 1 ON  35
CIcoeff_7 5.860826e-03                 3 1 ON  36
CIcoeff_8 2.233392e-04                 3 1 ON  37
CIcoeff_9 1.852432e-03                 3 1 ON  38
  </optVariables>
   Restore the number of walkers to 1, removing 0 walkers.
</opt>
</optimization-report>
  QMC Execution time = 0.9535 secs

=========================================================
  Start VMC
  File Root descent_ref.s009 append = no 
=========================================================
Resetting walkers
  Using the current 1 walkers.
  Total number of walkers: 4
  Total weight: 4
  Resetting Properties of the walkers 1 x 13

<vmc function="put">
  qmc_counter=0  my_counter=0
  time step      = 0.05
  blocks         = 200
  steps          = 5000
  substeps       = 1
  current        = 0
  target samples = 0
  walkers/mpi    = 1

  stepsbetweensamples = 1005000
<parameter name="blocks" condition="int">200</parameter>
<parameter name="blocks_between_recompute" condition="int">0</parameter>
<parameter name="check_properties" condition="int">100</parameter>
<parameter name="checkproperties" condition="int">100</parameter>
<parameter name="current" condition="int">0</parameter>
<parameter name="dmcwalkersperthread" condition="real">0</parameter>
<parameter name="maxcpusecs" condition="real">3.6e+05</parameter>
<parameter name="record_configs" condition="int">0</parameter>
<parameter name="record_walkers" condition="int">1005000</parameter>
<parameter name="recordconfigs" condition="int">0</parameter>
<parameter name="recordwalkers" condition="int">1005000</parameter>
<parameter name="rewind" condition="int">0</parameter>
<parameter name="samples" condition="real">0</parameter>
<parameter name="samplesperthread" condition="real">0</parameter>
<parameter name="steps" condition="int">5000</parameter>
<parameter name="stepsbetweensamples" condition="int">1005000</parameter>
<parameter name="store_configs" condition="int">0</parameter>
<parameter name="storeconfigs" condition="int">0</parameter>
<parameter name="sub_steps" condition="int">1</parameter>
<parameter name="substeps" condition="int">1</parameter>
<parameter name="tau" condition="au">0.05</parameter>
<parameter name="time_step" condition="au">0.05</parameter>
<parameter name="timestep" condition="au">0.05</parameter>
<parameter name="use_drift" condition="string">yes</parameter>
<parameter name="usedrift" condition="string">yes</parameter>
<parameter name="walkers" condition="int">1</parameter>
<parameter name="warmup_steps" condition="int">100</parameter>
<parameter name="warmupsteps" condition="int">100</parameter>
  DumpConfig==false Nothing (configurations, state) will be saved.
  Walker Samples are dumped every 1005000 steps.
</vmc>
  Set drift_modifier UNR parameter a = 1
  Cannot make clones again. Use existing 1 clones
  Initial partition of walkers 0 1 

  Using Particle by Particle moves
  Walker moves with drift
  Total Sample Size   =0
  Walker distribution on root = 0 1 
===== Memory Usage after the buffer registration =====
Available memory on node 0, free + buffers : 0 MB
Memory footprint by rank 0 on node 0       : 0 MB
==================================================
  Anonymous Buffer size per walker : 10664 Bytes.
MEMORY increase 0 MB VMC::resetRun
====================================================
  SimpleFixedNodeBranch::finalize after a VMC block
    QMC counter        = 9
    time step          = 0.05
    reference energy   = -2.09189
    reference variance = 0.0749874
====================================================
  QMC Execution time = 40.02 secs
  Total Execution time = 48.58 secs

=========================================================
  A new xml input file : descent_ref.s009.cont.xml
