 vasp.5.3.3 18Dez12 (build Dec 19 2012 13:15:22) complex                         
 executed on             LinuxOIC date 2015.01.15  15:04:56
 running on   32 total cores
 distrk:  each k-point on   32 cores,    1 groups
 distr:  one band on NCORES_PER_BAND=   1 cores,   32 groups


--------------------------------------------------------------------------------------------------------


 INCAR:
 POTCAR:   PAW_PBE Pt 05Jan2001                   

 ----------------------------------------------------------------------------- 
|                                                                             |
|           W    W    AA    RRRRR   N    N  II  N    N   GGGG   !!!           |
|           W    W   A  A   R    R  NN   N  II  NN   N  G    G  !!!           |
|           W    W  A    A  R    R  N N  N  II  N N  N  G       !!!           |
|           W WW W  AAAAAA  RRRRR   N  N N  II  N  N N  G  GGG   !            |
|           WW  WW  A    A  R   R   N   NN  II  N   NN  G    G                |
|           W    W  A    A  R    R  N    N  II  N    N   GGGG   !!!           |
|                                                                             |
|      For optimal performance we recommend that you set                      |
|        NPAR = 4 - approx SQRT( number of cores)                             |
|      (number of cores/NPAR must be integer)                                 |
|      This setting will greatly improve the performance of VASP for DFT.     |
|      The default NPAR=number of cores might be grossly inefficient          |
|      on modern multi-core architectures or massively parallel machines.     |
|      Do your own testing.                                                   |
|      Unfortunately you need to use the default for hybrid, GW and RPA       |
|      calculations.                                                          |
|                                                                             |
 ----------------------------------------------------------------------------- 

 POTCAR:   PAW_PBE Pt 05Jan2001                   
   VRHFIN =Pt: s1d9                                                             
   LEXCH  = PE                                                                  
   EATOM  =   729.1171 eV,   53.5886 Ry                                         
                                                                                
   TITEL  = PAW_PBE Pt 05Jan2001                                                
   LULTRA =        F    use ultrasoft PP ?                                      
   IUNSCR =        1    unscreen: 0-lin 1-nonlin 2-no                           
   RPACOR =    2.330    partial core radius                                     
   POMASS =  195.080; ZVAL   =   10.000    mass and valenz                      
   RCORE  =    2.500    outmost cutoff radius                                   
   RWIGS  =    2.750; RWIGS  =    1.455    wigner-seitz radius (au A)           
   ENMAX  =  230.283; ENMIN  =  172.712 eV                                      
   RCLOC  =    1.896    cutoff for local pot                                    
   LCOR   =        T    correct aug charges                                     
   LPAW   =        T    paw PP                                                  
   EAUG   =  358.966                                                            
   DEXC   =    -.039                                                            
   RMAX   =    3.038    core radius for proj-oper                               
   RAUG   =    1.300    factor for augmentation sphere                          
   RDEP   =    2.590    radius for radial grids                                 
   QCUT   =   -4.114; QGAM   =    8.228    optimization parameters              
                                                                                
   Description                                                                  
     l     E      TYP  RCUT    TYP  RCUT                                        
     2   .000     23  2.500                                                     
     2   .000     23  2.500                                                     
     0   .000     23  2.500                                                     
     0   .000     23  2.500                                                     
     1  -.200     23  2.500                                                     
     1  1.500     23  2.500                                                     
     3   .000      7   .000                                                     
  local pseudopotential read in
  partial core-charges read in
  atomic valenz-charges read in
  non local Contribution for L=            2  read in
    real space projection operators read in
  non local Contribution for L=            2  read in
    real space projection operators read in
  non local Contribution for L=            0  read in
    real space projection operators read in
  non local Contribution for L=            0  read in
    real space projection operators read in
  non local Contribution for L=            1  read in
    real space projection operators read in
  non local Contribution for L=            1  read in
    real space projection operators read in
    PAW grid and wavefunctions read in
 
   number of l-projection  operators is LMAX  =            6
   number of lm-projection operators is LMMAX =           18
 
 PAW_PBE Pt 05Jan2001                   :
 energy of atom  1       EATOM= -729.1171
 kinetic energy error for atom=    0.0646 (will be added to EATOM!!)
 
 
 POSCAR: System cell and coordinates             
  positions in cartesian coordinates
  No initial velocities read in
 exchange correlation table for  LEXCH =        8
   RHO(1)=    0.500       N(1)  =     2000
   RHO(2)=  100.500       N(2)  =     4000
 


--------------------------------------------------------------------------------------------------------


 ion  position               nearest neighbor table
   1  0.250  0.250  0.118-   5 2.79   8 2.79   6 2.79   3 2.81   2 2.81   3 2.81   2 2.81   7 2.83

   2  0.750  0.250  0.118-   5 2.79   8 2.79   6 2.79   4 2.81   1 2.81   4 2.81   1 2.81   7 2.83

   3  0.250  0.750  0.118-   5 2.79   8 2.79   6 2.79   4 2.81   1 2.81   1 2.81   4 2.81   7 2.83

   4  0.750  0.750  0.118-   5 2.79   8 2.79   6 2.79   3 2.81   2 2.81   2 2.81   3 2.81   7 2.83

   5  0.000  0.000  0.234-   1 2.79   2 2.79   3 2.79   4 2.79   9 2.81  10 2.81  11 2.81  12 2.81
                             6 2.81   6 2.81   7 2.81   7 2.81
   6  0.000  0.500  0.234-   1 2.79   2 2.79   3 2.79   4 2.79   9 2.80  10 2.80  11 2.80  12 2.80
                             5 2.81   8 2.81   5 2.81   8 2.81
   7  0.500  0.000  0.238-   9 2.76  10 2.76  11 2.76  12 2.76   5 2.81   8 2.81   8 2.81   5 2.81
                             1 2.83   2 2.83   3 2.83   4 2.83
   8  0.500  0.500  0.234-   1 2.79   2 2.79   3 2.79   4 2.79   9 2.81  10 2.81  11 2.81  12 2.81
                             6 2.81   6 2.81   7 2.81   7 2.81
   9  0.250  0.250  0.352-  13 2.58   7 2.76   6 2.80   8 2.81   5 2.81  11 2.81  10 2.81  11 2.81
                            10 2.81
  10  0.750  0.250  0.352-  13 2.58   7 2.76   6 2.80   8 2.81   5 2.81  12 2.81   9 2.81  12 2.81
                             9 2.81
  11  0.250  0.750  0.352-  13 2.58   7 2.76   6 2.80   8 2.81   5 2.81  12 2.81   9 2.81   9 2.81
                            12 2.81
  12  0.750  0.750  0.352-  13 2.58   7 2.76   6 2.80   8 2.81   5 2.81  11 2.81  10 2.81  10 2.81
                            11 2.81
  13  0.000  0.500  0.449-   9 2.58  10 2.58  11 2.58  12 2.58
 
  LATTYP: Found a simple tetragonal cell.
 ALAT       =     5.6202400000
 C/A-ratio  =     3.0000000000
  
  Lattice vectors:
  
 A1 = (   5.6202400000,   0.0000000000,   0.0000000000)
 A2 = (   0.0000000000,   5.6202400000,   0.0000000000)
 A3 = (   0.0000000000,   0.0000000000,  16.8607200000)


Analysis of symmetry for initial positions (statically):
=====================================================================
 Subroutine PRICEL returns:
 Original cell was already a primitive cell.
 

 Routine SETGRP: Setting up the symmetry group for a 
 simple tetragonal supercell.


 Subroutine GETGRP returns: Found  8 space group operations
 (whereof  4 operations were pure point group operations)
 out of a pool of 16 trial point group operations.


The static configuration has the point symmetry C_2v.
 The point group associated with its full space group is C_4v.


Analysis of symmetry for dynamics (positions and initial velocities):
=====================================================================
 Subroutine PRICEL returns:
 Original cell was already a primitive cell.
 

 Routine SETGRP: Setting up the symmetry group for a 
 simple tetragonal supercell.


 Subroutine GETGRP returns: Found  8 space group operations
 (whereof  4 operations were pure point group operations)
 out of a pool of 16 trial point group operations.


The dynamic configuration has the point symmetry C_2v.
 The point group associated with its full space group is C_4v.


Analysis of constrained symmetry for selective dynamics:
=====================================================================
 Subroutine PRICEL returns:
 Original cell was already a primitive cell.
 

 Routine SETGRP: Setting up the symmetry group for a 
 simple tetragonal supercell.


 Subroutine GETGRP returns: Found  8 space group operations
 (whereof  4 operations were pure point group operations)
 out of a pool of 16 trial point group operations.


The constrained configuration has the point symmetry C_2v.
 The point group associated with its full space group is C_4v.


 irot  :   1
 --------------------------------------------------------------------
 isymop:   1   0   0
           0   1   0
           0   0   1

 gtrans:     0.0000000     0.0000000     0.0000000

 ptrans:     0.0000000     0.0000000     0.0000000
 rotmap:
 (   1->   1)  (   2->   2)  (   3->   3)  (   4->   4)  (   5->   5)  
 (   6->   6)  (   7->   7)  (   8->   8)  (   9->   9)  (  10->  10)  
 (  11->  11)  (  12->  12)  (  13->  13)  


 irot  :   2
 --------------------------------------------------------------------
 isymop:  -1   0   0
           0  -1   0
           0   0   1

 gtrans:     0.0000000     0.0000000     0.0000000

 ptrans:     0.0000000     0.0000000     0.0000000
 rotmap:
 (   1->   4)  (   2->   3)  (   3->   2)  (   4->   1)  (   5->   5)  
 (   6->   6)  (   7->   7)  (   8->   8)  (   9->  12)  (  10->  11)  
 (  11->  10)  (  12->   9)  (  13->  13)  


 irot  :   3
 --------------------------------------------------------------------
 isymop:   1   0   0
           0  -1   0
           0   0   1

 gtrans:     0.0000000     0.0000000     0.0000000

 ptrans:     0.0000000     0.0000000     0.0000000
 rotmap:
 (   1->   3)  (   2->   4)  (   3->   1)  (   4->   2)  (   5->   5)  
 (   6->   6)  (   7->   7)  (   8->   8)  (   9->  11)  (  10->  12)  
 (  11->   9)  (  12->  10)  (  13->  13)  


 irot  :   4
 --------------------------------------------------------------------
 isymop:  -1   0   0
           0   1   0
           0   0   1

 gtrans:     0.0000000     0.0000000     0.0000000

 ptrans:     0.0000000     0.0000000     0.0000000
 rotmap:
 (   1->   2)  (   2->   1)  (   3->   4)  (   4->   3)  (   5->   5)  
 (   6->   6)  (   7->   7)  (   8->   8)  (   9->  10)  (  10->   9)  
 (  11->  12)  (  12->  11)  (  13->  13)  


 irot  :   5
 --------------------------------------------------------------------
 isymop:   0  -1   0
           1   0   0
           0   0   1

 gtrans:     0.5000000     0.5000000     0.0000000

 ptrans:     0.0000000     0.0000000     0.0000000
 rotmap:
 (   1->   3)  (   2->   1)  (   3->   4)  (   4->   2)  (   5->   8)  
 (   6->   6)  (   7->   7)  (   8->   5)  (   9->  11)  (  10->   9)  
 (  11->  12)  (  12->  10)  (  13->  13)  


 irot  :   6
 --------------------------------------------------------------------
 isymop:   0   1   0
          -1   0   0
           0   0   1

 gtrans:     0.5000000     0.5000000     0.0000000

 ptrans:     0.0000000     0.0000000     0.0000000
 rotmap:
 (   1->   2)  (   2->   4)  (   3->   1)  (   4->   3)  (   5->   8)  
 (   6->   6)  (   7->   7)  (   8->   5)  (   9->  10)  (  10->  12)  
 (  11->   9)  (  12->  11)  (  13->  13)  


 irot  :   7
 --------------------------------------------------------------------
 isymop:   0  -1   0
          -1   0   0
           0   0   1

 gtrans:     0.5000000     0.5000000     0.0000000

 ptrans:     0.0000000     0.0000000     0.0000000
 rotmap:
 (   1->   1)  (   2->   3)  (   3->   2)  (   4->   4)  (   5->   8)  
 (   6->   6)  (   7->   7)  (   8->   5)  (   9->   9)  (  10->  11)  
 (  11->  10)  (  12->  12)  (  13->  13)  


 irot  :   8
 --------------------------------------------------------------------
 isymop:   0   1   0
           1   0   0
           0   0   1

 gtrans:     0.5000000     0.5000000     0.0000000

 ptrans:     0.0000000     0.0000000     0.0000000
 rotmap:
 (   1->   4)  (   2->   2)  (   3->   3)  (   4->   1)  (   5->   8)  
 (   6->   6)  (   7->   7)  (   8->   5)  (   9->  12)  (  10->  10)  
 (  11->  11)  (  12->   9)  (  13->  13)  
 
 
 KPOINTS: gamma mesh                              

Automatic generation of k-mesh.
Space group operators:
 irot       det(A)        alpha          n_x          n_y          n_z        tau_x        tau_y        tau_z
    1     1.000000     0.000000     1.000000     0.000000     0.000000     0.000000     0.000000     0.000000
    2     1.000000   180.000000     0.000000     0.000000     1.000000     0.000000     0.000000     0.000000
    3    -1.000000   180.000000     0.000000     1.000000     0.000000     0.000000     0.000000     0.000000
    4    -1.000000   180.000000     1.000000     0.000000     0.000000     0.000000     0.000000     0.000000
    5     1.000000    90.000000     0.000000     0.000000    -1.000000     0.500000     0.500000     0.000000
    6     1.000000    90.000000     0.000000     0.000000     1.000000     0.500000     0.500000     0.000000
    7    -1.000000   180.000000     0.707107     0.707107     0.000000     0.500000     0.500000     0.000000
    8    -1.000000   180.000000     0.707107    -0.707107     0.000000     0.500000     0.500000     0.000000
 
 Subroutine IBZKPT returns following result:
 ===========================================
 
 Found      3 irreducible k-points:
 
 Following reciprocal coordinates:
            Coordinates               Weight
  0.000000  0.000000  0.000000      1.000000
  0.333333  0.000000  0.000000      4.000000
  0.333333  0.333333  0.000000      4.000000
 
 Following cartesian coordinates:
            Coordinates               Weight
  0.000000  0.000000  0.000000      1.000000
  0.059309  0.000000  0.000000      4.000000
  0.059309  0.059309  0.000000      4.000000
 


--------------------------------------------------------------------------------------------------------




 Dimension of arrays:
   k-points           NKPTS =      3   k-points in BZ     NKDIM =      3   number of bands    NBANDS=     96
   number of dos      NEDOS =    301   number of ions     NIONS =     13
   non local maximal  LDIM  =      6   non local SUM 2l+1 LMDIM =     18
   total plane-waves  NPLWV =  36864
   max r-space proj   IRMAX =      1   max aug-charges    IRDMAX=   4391
   dimension x,y,z NGX =    24 NGY =   24 NGZ =   64
   dimension x,y,z NGXF=    48 NGYF=   48 NGZF=  128
   support grid    NGXF=    48 NGYF=   48 NGZF=  128
   ions per type =              13
 NGX,Y,Z   is equivalent  to a cutoff of   7.10,  7.10,  6.31 a.u.
 NGXF,Y,Z  is equivalent  to a cutoff of  14.20, 14.20, 12.62 a.u.


 I would recommend the setting:
   dimension x,y,z NGX =    21 NGY =   21 NGZ =   63
 SYSTEM =  unknown system                          
 POSCAR =  System cell and coordinates             

 Startparameter for this run:
   NWRITE =      2    write-flag & timer
   PREC   = normal    normal or accurate (medium, high low for compatibility)
   ISTART =      0    job   : 0-new  1-cont  2-samecut
   ICHARG =      2    charge: 1-file 2-atom 10-const
   ISPIN  =      1    spin polarized calculation?
   LNONCOLLINEAR =      F non collinear calculations
   LSORBIT =      F    spin-orbit coupling
   INIWAV =      1    electr: 0-lowe 1-rand  2-diag
   LASPH  =      F    aspherical Exc in radial PAW
   METAGGA=      F    non-selfconsistent MetaGGA calc.

 Electronic Relaxation 1
   ENCUT  =  230.3 eV  16.93 Ry    4.11 a.u.   6.95  6.95 20.86*2*pi/ulx,y,z
   ENINI  =  230.3     initial cutoff
   ENAUG  =  359.0 eV  augmentation charge cutoff
   NELM   =     60;   NELMIN=  2; NELMDL= -5     # of ELM steps 
   EDIFF  = 0.1E-05   stopping-criterion for ELM
   LREAL  =      F    real-space projection
   NLSPLINE    = F    spline interpolate recip. space projectors
   LCOMPAT=      F    compatible to vasp.4.4
   GGA_COMPAT  = T    GGA compatible to vasp.4.4-vasp.4.6
   LMAXPAW     = -100 max onsite density
   LMAXMIX     =    2 max onsite mixed and CHGCAR
   VOSKOWN=      0    Vosko Wilk Nusair interpolation
   ROPT   =    0.00000
 Ionic relaxation
   EDIFFG = -.1E-01   stopping-criterion for IOM
   NSW    =     20    number of steps for IOM
   NBLOCK =      1;   KBLOCK =     20    inner block; outer block 
   IBRION =      1    ionic relax: 0-MD 1-quasi-New 2-CG
   NFREE  =      0    steps in history (QN), initial steepest desc. (CG)
   ISIF   =      2    stress and relaxation
   IWAVPR =     11    prediction:  0-non 1-charg 2-wave 3-comb
   ISYM   =      2    0-nonsym 1-usesym 2-fastsym
   LCORR  =      T    Harris-Foulkes like correction to forces

   POTIM  = 0.5000    time-step for ionic-motion
   TEIN   =    0.0    initial temperature
   TEBEG  =    0.0;   TEEND  =   0.0 temperature during run
   SMASS  =  -3.00    Nose mass-parameter (am)
   estimated Nose-frequenzy (Omega)   =  0.10E-29 period in steps =****** mass=  -0.722E-27a.u.
   SCALEE = 1.0000    scale energy and forces
   NPACO  =    256;   APACO  = 16.0  distance and # of slots for P.C.
   PSTRESS=    0.0 pullay stress

  Mass of Ions in am
   POMASS = 195.08
  Ionic Valenz
   ZVAL   =  10.00
  Atomic Wigner-Seitz radii
   RWIGS  =  -1.00
  virtual crystal weights 
   VCA    =   1.00
   NELECT =     130.0000    total number of electrons
   NUPDOWN=      -1.0000    fix difference up-down

 DOS related values:
   EMIN   =  10.00;   EMAX   =-10.00  energy-range for DOS
   EFERMI =   0.00
   ISMEAR =     1;   SIGMA  =   0.20  broadening in eV -4-tet -1-fermi 0-gaus

 Electronic relaxation 2 (details)
   IALGO  =     38    algorithm
   LDIAG  =      T    sub-space diagonalisation (order eigenvalues)
   LSUBROT=      T    optimize rotation matrix (better conditioning)
   TURBO    =      0    0=normal 1=particle mesh
   IRESTART =      0    0=no restart 2=restart with 2 vectors
   NREBOOT  =      0    no. of reboots
   NMIN     =      0    reboot dimension
   EREF     =   0.00    reference energy to select bands
   IMIX   =      4    mixing-type and parameters
     AMIX     =   0.40;   BMIX     =  1.00
     AMIX_MAG =   1.60;   BMIX_MAG =  1.00
     AMIN     =   0.10
     WC   =   100.;   INIMIX=   1;  MIXPRE=   1;  MAXMIX= -45

 Intra band minimization:
   WEIMIN = 0.0010     energy-eigenvalue tresh-hold
   EBREAK =  0.26E-08  absolut break condition
   DEPER  =   0.30     relativ break condition  

   TIME   =   0.40     timestep for ELM

  volume/ion in A,a.u.               =      40.97       276.46
  Fermi-wavevector in a.u.,A,eV,Ry     =   1.023122  1.933420 14.242282  1.046778
  Thomas-Fermi vector in A             =   2.156838
 
 Write flags
   LWAVE  =      T    write WAVECAR
   LCHARG =      T    write CHGCAR
   LVTOT  =      F    write LOCPOT, total local potential
   LVHAR  =      F    write LOCPOT, Hartree potential only
   LELF   =      F    write electronic localiz. function (ELF)
   LORBIT =      0    0 simple, 1 ext, 2 COOP (PROOUT)


 Dipole corrections
   LMONO  =      F    monopole corrections only (constant potential shift)
   LDIPOL =      F    correct potential (dipole corrections)
   IDIPOL =      0    1-x, 2-y, 3-z, 4-all directions 
   EPSILON=  1.0000000 bulk dielectric constant

 Exchange correlation treatment:
   GGA     =    --    GGA type
   LEXCH   =     8    internal setting for exchange type
   VOSKOWN=      0    Vosko Wilk Nusair interpolation
   LHFCALC =     F    Hartree Fock is set to
   LHFONE  =     F    Hartree Fock one center treatment
   AEXX    =    0.0000 exact exchange contribution

 Linear response parameters
   LEPSILON=     F    determine dielectric tensor
   LRPA    =     F    only Hartree local field effects (RPA)
   LNABLA  =     F    use nabla operator in PAW spheres
   LVEL    =     F    velocity operator in full k-point grid
   LINTERFAST=   F  fast interpolation
   KINTER  =     0    interpolate to denser k-point grid
   CSHIFT  =0.1000    complex shift for real part using Kramers Kronig
   OMEGAMAX=  -1.0    maximum frequency
   DEG_THRESHOLD= 0.2000000E-02 threshold for treating states as degnerate
   RTIME   =    0.100 relaxation time in fs

 Orbital magnetization related:
   ORBITALMAG=     F  switch on orbital magnetization
   LCHIMAG   =     F  perturbation theory with respect to B field
   DQ        =  0.001000  dq finite difference perturbation B field



--------------------------------------------------------------------------------------------------------


 quasi-Newton-method for relaxation of ions
   using selective dynamics as specified on POSCAR
   WARNING: If single coordinates had been selected the selection of coordinates
            is made according to the corresponding   d i r e c t   coordinates!
            Don't support selection of single cartesian coordinates -- sorry ... !
 charge density and potential will be updated during run
 non-spin polarized calculation
 Variant of blocked Davidson
 Davidson routine will perform the subspace rotation
 perform sub-space diagonalisation
    after iterative eigenvector-optimisation
 modified Broyden-mixing scheme, WC =      100.0
 initial mixing is a Kerker type mixing with AMIX =  0.4000 and BMIX =      1.0000
 Hartree-type preconditioning will be used
 using additional bands            31
 reciprocal scheme for non local part
 use partial core corrections
 calculate Harris-corrections to forces 
   (improved forces if not selfconsistent)
 use gradient corrections 
 use of overlap-Matrix (Vanderbilt PP)
 Methfessel and Paxton  Order N= 1 SIGMA  =   0.20


--------------------------------------------------------------------------------------------------------


  energy-cutoff  :      230.28
  volume of cell :      532.58
      direct lattice vectors                 reciprocal lattice vectors
     5.620240000  0.000000000  0.000000000     0.177928345  0.000000000  0.000000000
     0.000000000  5.620240000  0.000000000     0.000000000  0.177928345  0.000000000
     0.000000000  0.000000000 16.860720000     0.000000000  0.000000000  0.059309448

  length of vectors
     5.620240000  5.620240000 16.860720000     0.177928345  0.177928345  0.059309448


 
 k-points in units of 2pi/SCALE and weight: gamma mesh                              
   0.00000000  0.00000000  0.00000000       0.111
   0.05930945  0.00000000  0.00000000       0.444
   0.05930945  0.05930945  0.00000000       0.444
 
 k-points in reciprocal lattice and weights: gamma mesh                              
   0.00000000  0.00000000  0.00000000       0.111
   0.33333333  0.00000000  0.00000000       0.444
   0.33333333  0.33333333  0.00000000       0.444
 
 position of ions in fractional coordinates (direct lattice) 
   0.25000000  0.25000000  0.11785000
   0.75000000  0.25000000  0.11785000
   0.25000000  0.75000000  0.11785000
   0.75000000  0.75000000  0.11785000
   0.00000000  0.00000000  0.23414099
   0.00000000  0.50000000  0.23441588
   0.50000000  0.00000000  0.23777213
   0.50000000  0.50000000  0.23414099
   0.25000000  0.25000000  0.35179823
   0.75000000  0.25000000  0.35179823
   0.25000000  0.75000000  0.35179823
   0.75000000  0.75000000  0.35179823
   0.00000000  0.50000000  0.44922707
 
 position of ions in cartesian coordinates  (Angst):
   1.40506000  1.40506000  1.98703585
   4.21518000  1.40506000  1.98703585
   1.40506000  4.21518000  1.98703585
   4.21518000  4.21518000  1.98703585
   0.00000000  0.00000000  3.94778569
   0.00000000  2.81012000  3.95242044
   2.81012000  0.00000000  4.00900926
   2.81012000  2.81012000  3.94778569
   1.40506000  1.40506000  5.93157149
   4.21518000  1.40506000  5.93157149
   1.40506000  4.21518000  5.93157149
   4.21518000  4.21518000  5.93157149
   0.00000000  2.81012000  7.57429185
 


--------------------------------------------------------------------------------------------------------


 k-point  1 :   0.0000 0.0000 0.0000  plane waves:    4193
 k-point  2 :   0.3333 0.0000 0.0000  plane waves:    4222
 k-point  3 :   0.3333 0.3333 0.0000  plane waves:    4252

 maximum and minimum number of plane-waves per node :      4252     4193

 maximum number of plane-waves:      4252
 maximum index in each direction: 
   IXMAX=    6   IYMAX=    6   IZMAX=   20
   IXMIN=   -7   IYMIN=   -7   IZMIN=  -20

 WARNING: aliasing errors must be expected set NGX to  28 to avoid them
 WARNING: aliasing errors must be expected set NGY to  28 to avoid them
 WARNING: aliasing errors must be expected set NGZ to  82 to avoid them
 aliasing errors are usually negligible using standard VASP settings
 and one can safely disregard these warnings

 serial   3D FFT for wavefunctions
 parallel 3D FFT for charge:
    minimum data exchange during FFTs selected (reduces bandwidth)


 total amount of memory used by VASP on root node    36199. kBytes
========================================================================

   base      :      30000. kBytes
   nonl-proj :       2723. kBytes
   fftplans  :        546. kBytes
   grid      :       2079. kBytes
   one-center:        202. kBytes
   wavefun   :        649. kBytes
 
 Broyden mixing: mesh for mixing (old mesh)
   NGX = 13   NGY = 13   NGZ = 41
  (NGX  = 48   NGY  = 48   NGZ  =128)
  gives a total of   6929 points

 initial charge density was supplied:
 charge density of overlapping atoms calculated
 number of electron     130.0000000 magnetization 
 keeping initial charge density in first step


--------------------------------------------------------------------------------------------------------


 Maximum index for augmentation-charges           299 (set IRDMAX)


--------------------------------------------------------------------------------------------------------


 First call to EWALD:  gamma=   0.219
 Maximum number of real-space cells 4x 4x 2
 Maximum number of reciprocal cells 2x 2x 5

 FEWALD executed in parallel
    FEWALD:  cpu time    0.00: real time    0.00


----------------------------------------- Iteration    1(   1)  ---------------------------------------


    POTLOK:  cpu time    0.27: real time    0.28
    SETDIJ:  cpu time    0.14: real time    0.14
     EDDAV:  cpu time    1.33: real time    1.34
       DOS:  cpu time    0.00: real time    0.00
    --------------------------------------------
      LOOP:  cpu time    1.77: real time    1.84

 eigenvalue-minimisations  :   576
 total energy-change (2. order) : 0.6650120E+03  (-0.3621398E+04)
 number of electron     130.0000000 magnetization 
 augmentation part      130.0000000 magnetization 

 Free energy of the ion-electron system (eV)
  ---------------------------------------------------
  alpha Z        PSCENC =       461.68925780
  Ewald energy   TEWEN  =     16263.57383177
  -1/2 Hartree   DENC   =    -26291.80622133
  -exchange  EXHF       =         0.00000000
  -V(xc)+E(xc)   XCENC  =        41.43419793
  PAW double counting   =      7452.19141226    -7084.50756752
  entropy T*S    EENTRO =         0.01078542
  eigenvalues    EBANDS =       344.74317763
  atomic energy  EATOM  =      9477.68310066
  ---------------------------------------------------
  free energy    TOTEN  =       665.01197462 eV

  energy without entropy =      665.00118920  energy(sigma->0) =      665.00837948


--------------------------------------------------------------------------------------------------------




----------------------------------------- Iteration    1(   2)  ---------------------------------------


     EDDAV:  cpu time    1.14: real time    1.14
       DOS:  cpu time    0.00: real time    0.00
    --------------------------------------------
      LOOP:  cpu time    1.14: real time    1.15

 eigenvalue-minimisations  :   672
 total energy-change (2. order) :-0.7100598E+03  (-0.6331423E+03)
 number of electron     130.0000000 magnetization 
 augmentation part      130.0000000 magnetization 

 Free energy of the ion-electron system (eV)
  ---------------------------------------------------
  alpha Z        PSCENC =       461.68925780
  Ewald energy   TEWEN  =     16263.57383177
  -1/2 Hartree   DENC   =    -26291.80622133
  -exchange  EXHF       =         0.00000000
  -V(xc)+E(xc)   XCENC  =        41.43419793
  PAW double counting   =      7452.19141226    -7084.50756752
  entropy T*S    EENTRO =        -0.03447623
  eigenvalues    EBANDS =      -365.27135289
  atomic energy  EATOM  =      9477.68310066
  ---------------------------------------------------
  free energy    TOTEN  =       -45.04781755 eV

  energy without entropy =      -45.01334133  energy(sigma->0) =      -45.03632548


--------------------------------------------------------------------------------------------------------




----------------------------------------- Iteration    1(   3)  ---------------------------------------


     EDDAV:  cpu time    2.29: real time    2.29
       DOS:  cpu time    0.00: real time    0.00
    --------------------------------------------
      LOOP:  cpu time    2.29: real time    2.32

 eigenvalue-minimisations  :   768
 total energy-change (2. order) :-0.3055013E+02  (-0.2956507E+02)
 number of electron     130.0000000 magnetization 
 augmentation part      130.0000000 magnetization 

 Free energy of the ion-electron system (eV)
  ---------------------------------------------------
  alpha Z        PSCENC =       461.68925780
  Ewald energy   TEWEN  =     16263.57383177
  -1/2 Hartree   DENC   =    -26291.80622133
  -exchange  EXHF       =         0.00000000
  -V(xc)+E(xc)   XCENC  =        41.43419793
  PAW double counting   =      7452.19141226    -7084.50756752
  entropy T*S    EENTRO =        -0.02137537
  eigenvalues    EBANDS =      -395.83458761
  atomic energy  EATOM  =      9477.68310066
  ---------------------------------------------------
  free energy    TOTEN  =       -75.59795141 eV

  energy without entropy =      -75.57657604  energy(sigma->0) =      -75.59082629


--------------------------------------------------------------------------------------------------------




----------------------------------------- Iteration    1(   4)  ---------------------------------------


     EDDAV:  cpu time    1.13: real time    1.13
       DOS:  cpu time    0.00: real time    0.00
    --------------------------------------------
      LOOP:  cpu time    1.13: real time    1.15

 eigenvalue-minimisations  :   672
 total energy-change (2. order) :-0.4257028E+00  (-0.4255622E+00)
 number of electron     130.0000000 magnetization 
 augmentation part      130.0000000 magnetization 

 Free energy of the ion-electron system (eV)
  ---------------------------------------------------
  alpha Z        PSCENC =       461.68925780
  Ewald energy   TEWEN  =     16263.57383177
  -1/2 Hartree   DENC   =    -26291.80622133
  -exchange  EXHF       =         0.00000000
  -V(xc)+E(xc)   XCENC  =        41.43419793
  PAW double counting   =      7452.19141226    -7084.50756752
  entropy T*S    EENTRO =        -0.02092259
  eigenvalues    EBANDS =      -396.26074318
  atomic energy  EATOM  =      9477.68310066
  ---------------------------------------------------
  free energy    TOTEN  =       -76.02365421 eV

  energy without entropy =      -76.00273162  energy(sigma->0) =      -76.01668001


--------------------------------------------------------------------------------------------------------




----------------------------------------- Iteration    1(   5)  ---------------------------------------


     EDDAV:  cpu time    1.63: real time    1.63
       DOS:  cpu time    0.00: real time    0.00
    CHARGE:  cpu time    0.05: real time    0.05
    MIXING:  cpu time    0.00: real time    0.00
    --------------------------------------------
      LOOP:  cpu time    1.68: real time    1.71

 eigenvalue-minimisations  :   864
 total energy-change (2. order) :-0.1075810E-01  (-0.1075738E-01)
 number of electron     130.0000689 magnetization 
 augmentation part       38.2828992 magnetization 

 Broyden mixing:
  rms(total) = 0.13373E+01    rms(broyden)= 0.13312E+01
  rms(prec ) = 0.15409E+01
  weight for this iteration     100.00

 Free energy of the ion-electron system (eV)
  ---------------------------------------------------
  alpha Z        PSCENC =       461.68925780
  Ewald energy   TEWEN  =     16263.57383177
  -1/2 Hartree   DENC   =    -26291.80622133
  -exchange  EXHF       =         0.00000000
  -V(xc)+E(xc)   XCENC  =        41.43419793
  PAW double counting   =      7452.19141226    -7084.50756752
  entropy T*S    EENTRO =        -0.02088006
  eigenvalues    EBANDS =      -396.27154382
  atomic energy  EATOM  =      9477.68310066
  ---------------------------------------------------
  free energy    TOTEN  =       -76.03441232 eV

  energy without entropy =      -76.01353225  energy(sigma->0) =      -76.02745229


--------------------------------------------------------------------------------------------------------




----------------------------------------- Iteration    1(   6)  ---------------------------------------


    POTLOK:  cpu time    0.02: real time    0.02
    SETDIJ:  cpu time    0.01: real time    0.01
     EDDAV:  cpu time    1.20: real time    1.20
       DOS:  cpu time    0.00: real time    0.00
    CHARGE:  cpu time    0.04: real time    0.04
    MIXING:  cpu time    0.00: real time    0.00
    --------------------------------------------
      LOOP:  cpu time    1.28: real time    1.30

 eigenvalue-minimisations  :   704
 total energy-change (2. order) : 0.2620636E+01  (-0.1534730E+01)
 number of electron     130.0000729 magnetization 
 augmentation part       40.3880037 magnetization 

 Broyden mixing:
  rms(total) = 0.10408E+01    rms(broyden)= 0.10394E+01
  rms(prec ) = 0.18285E+01
  weight for this iteration     100.00

 eigenvalues of (default mixing * dielectric matrix)
  average eigenvalue GAMMA=   0.6775
  0.6775

 Free energy of the ion-electron system (eV)
  ---------------------------------------------------
  alpha Z        PSCENC =       461.68925780
  Ewald energy   TEWEN  =     16263.57383177
  -1/2 Hartree   DENC   =    -26187.52033796
  -exchange  EXHF       =         0.00000000
  -V(xc)+E(xc)   XCENC  =        38.17624288
  PAW double counting   =      7412.69684788    -7060.57717645
  entropy T*S    EENTRO =        -0.06967489
  eigenvalues    EBANDS =      -479.06586828
  atomic energy  EATOM  =      9477.68310066
  ---------------------------------------------------
  free energy    TOTEN  =       -73.41377659 eV

  energy without entropy =      -73.34410170  energy(sigma->0) =      -73.39055162


--------------------------------------------------------------------------------------------------------




----------------------------------------- Iteration    1(   7)  ---------------------------------------


    POTLOK:  cpu time    0.19: real time    0.19
    SETDIJ:  cpu time    0.01: real time    0.01
     EDDAV:  cpu time    1.38: real time    1.38
       DOS:  cpu time    0.00: real time    0.00
    CHARGE:  cpu time    0.04: real time    0.05
    MIXING:  cpu time    0.00: real time    0.00
    --------------------------------------------
      LOOP:  cpu time    1.63: real time    1.64

 eigenvalue-minimisations  :   800
 total energy-change (2. order) :-0.1923012E+01  (-0.2014536E+01)
 number of electron     130.0000710 magnetization 
 augmentation part       40.4702518 magnetization 

 Broyden mixing:
  rms(total) = 0.12567E+01    rms(broyden)= 0.12550E+01
  rms(prec ) = 0.23571E+01
  weight for this iteration     100.00

 eigenvalues of (default mixing * dielectric matrix)
  average eigenvalue GAMMA=   0.6429
  0.1878  1.0981

 Free energy of the ion-electron system (eV)
  ---------------------------------------------------
  alpha Z        PSCENC =       461.68925780
  Ewald energy   TEWEN  =     16263.57383177
  -1/2 Hartree   DENC   =    -26194.20220405
  -exchange  EXHF       =         0.00000000
  -V(xc)+E(xc)   XCENC  =        37.84358522
  PAW double counting   =      7444.22238171    -7094.60868192
  entropy T*S    EENTRO =        -0.02515096
  eigenvalues    EBANDS =      -471.51290921
  atomic energy  EATOM  =      9477.68310066
  ---------------------------------------------------
  free energy    TOTEN  =       -75.33678898 eV

  energy without entropy =      -75.31163802  energy(sigma->0) =      -75.32840532


--------------------------------------------------------------------------------------------------------




----------------------------------------- Iteration    1(   8)  ---------------------------------------


    POTLOK:  cpu time    0.02: real time    0.02
    SETDIJ:  cpu time    0.01: real time    0.01
     EDDAV:  cpu time    1.52: real time    1.52
       DOS:  cpu time    0.00: real time    0.00
    CHARGE:  cpu time    0.05: real time    0.05
    MIXING:  cpu time    0.00: real time    0.00
    --------------------------------------------
      LOOP:  cpu time    1.60: real time    1.61

 eigenvalue-minimisations  :   864
 total energy-change (2. order) : 0.2439297E+01  (-0.1001312E+01)
 number of electron     130.0000724 magnetization 
 augmentation part       40.4320847 magnetization 

 Broyden mixing:
  rms(total) = 0.85389E+00    rms(broyden)= 0.85211E+00
  rms(prec ) = 0.11904E+01
  weight for this iteration     100.00

 eigenvalues of (default mixing * dielectric matrix)
  average eigenvalue GAMMA=   0.5835
  1.3066  0.2455  0.1984

 Free energy of the ion-electron system (eV)
  ---------------------------------------------------
  alpha Z        PSCENC =       461.68925780
  Ewald energy   TEWEN  =     16263.57383177
  -1/2 Hartree   DENC   =    -26204.74721546
  -exchange  EXHF       =         0.00000000
  -V(xc)+E(xc)   XCENC  =        37.32482505
  PAW double counting   =      7495.09437723    -7149.67175280
  entropy T*S    EENTRO =        -0.03229357
  eigenvalues    EBANDS =      -453.81162273
  atomic energy  EATOM  =      9477.68310066
  ---------------------------------------------------
  free energy    TOTEN  =       -72.89749205 eV

  energy without entropy =      -72.86519848  energy(sigma->0) =      -72.88672752


--------------------------------------------------------------------------------------------------------




----------------------------------------- Iteration    1(   9)  ---------------------------------------


    POTLOK:  cpu time    0.03: real time    0.03
    SETDIJ:  cpu time    0.01: real time    0.01
     EDDAV:  cpu time    1.49: real time    1.49
       DOS:  cpu time    0.00: real time    0.00
    CHARGE:  cpu time    0.05: real time    0.05
    MIXING:  cpu time    0.00: real time    0.00
    --------------------------------------------
      LOOP:  cpu time    1.58: real time    1.58

 eigenvalue-minimisations  :   832
 total energy-change (2. order) : 0.1496722E+01  (-0.2427467E+00)
 number of electron     130.0000723 magnetization 
 augmentation part       40.7590192 magnetization 

 Broyden mixing:
  rms(total) = 0.26003E+00    rms(broyden)= 0.25796E+00
  rms(prec ) = 0.39515E+00
  weight for this iteration     100.00

 eigenvalues of (default mixing * dielectric matrix)
  average eigenvalue GAMMA=   0.5808
  1.3590  0.1790  0.3927  0.3927

 Free energy of the ion-electron system (eV)
  ---------------------------------------------------
  alpha Z        PSCENC =       461.68925780
  Ewald energy   TEWEN  =     16263.57383177
  -1/2 Hartree   DENC   =    -26185.93374434
  -exchange  EXHF       =         0.00000000
  -V(xc)+E(xc)   XCENC  =        37.18579915
  PAW double counting   =      7522.86172292    -7179.97696427
  entropy T*S    EENTRO =        -0.05258992
  eigenvalues    EBANDS =      -468.43118375
  atomic energy  EATOM  =      9477.68310066
  ---------------------------------------------------
  free energy    TOTEN  =       -71.40076999 eV

  energy without entropy =      -71.34818007  energy(sigma->0) =      -71.38324002


--------------------------------------------------------------------------------------------------------




----------------------------------------- Iteration    1(  10)  ---------------------------------------


    POTLOK:  cpu time    0.02: real time    0.02
    SETDIJ:  cpu time    0.01: real time    0.01
     EDDAV:  cpu time    1.23: real time    1.23
       DOS:  cpu time    0.00: real time    0.00
    CHARGE:  cpu time    0.04: real time    0.04
    MIXING:  cpu time    0.00: real time    0.00
    --------------------------------------------
      LOOP:  cpu time    1.31: real time    1.33

 eigenvalue-minimisations  :   704
 total energy-change (2. order) : 0.6532063E-01  (-0.2692984E-01)
 number of electron     130.0000724 magnetization 
 augmentation part       40.7769792 magnetization 

 Broyden mixing:
  rms(total) = 0.14217E+00    rms(broyden)= 0.14203E+00
  rms(prec ) = 0.19212E+00
  weight for this iteration     100.00

 eigenvalues of (default mixing * dielectric matrix)
  average eigenvalue GAMMA=   0.6772
  1.4283  0.7367  0.7367  0.1814  0.3032

 Free energy of the ion-electron system (eV)
  ---------------------------------------------------
  alpha Z        PSCENC =       461.68925780
  Ewald energy   TEWEN  =     16263.57383177
  -1/2 Hartree   DENC   =    -26187.36642997
  -exchange  EXHF       =         0.00000000
  -V(xc)+E(xc)   XCENC  =        37.17535084
  PAW double counting   =      7548.51760969    -7206.70100378
  entropy T*S    EENTRO =        -0.05534169
  eigenvalues    EBANDS =      -465.85182467
  atomic energy  EATOM  =      9477.68310066
  ---------------------------------------------------
  free energy    TOTEN  =       -71.33544936 eV

  energy without entropy =      -71.28010766  energy(sigma->0) =      -71.31700213


--------------------------------------------------------------------------------------------------------




----------------------------------------- Iteration    1(  11)  ---------------------------------------


    POTLOK:  cpu time    0.03: real time    0.03
    SETDIJ:  cpu time    0.01: real time    0.01
     EDDAV:  cpu time    1.68: real time    1.70
       DOS:  cpu time    0.00: real time    0.00
    CHARGE:  cpu time    0.04: real time    0.05
    MIXING:  cpu time    0.00: real time    0.00
    --------------------------------------------
      LOOP:  cpu time    1.77: real time    1.79

 eigenvalue-minimisations  :   896
 total energy-change (2. order) : 0.7980187E-02  (-0.1124462E-01)
 number of electron     130.0000728 magnetization 
 augmentation part       40.7647875 magnetization 

 Broyden mixing:
  rms(total) = 0.10115E+00    rms(broyden)= 0.10083E+00
  rms(prec ) = 0.12880E+00
  weight for this iteration     100.00

 eigenvalues of (default mixing * dielectric matrix)
  average eigenvalue GAMMA=   0.8306
  2.0505  1.1475  0.9468  0.1811  0.3463  0.3116

 Free energy of the ion-electron system (eV)
  ---------------------------------------------------
  alpha Z        PSCENC =       461.68925780
  Ewald energy   TEWEN  =     16263.57383177
  -1/2 Hartree   DENC   =    -26190.07062850
  -exchange  EXHF       =         0.00000000
  -V(xc)+E(xc)   XCENC  =        37.16390322
  PAW double counting   =      7577.31112619    -7236.64983834
  entropy T*S    EENTRO =        -0.05978938
  eigenvalues    EBANDS =      -461.96843260
  atomic energy  EATOM  =      9477.68310066
  ---------------------------------------------------
  free energy    TOTEN  =       -71.32746917 eV

  energy without entropy =      -71.26767979  energy(sigma->0) =      -71.30753938


--------------------------------------------------------------------------------------------------------




----------------------------------------- Iteration    1(  12)  ---------------------------------------


    POTLOK:  cpu time    0.22: real time    0.22
    SETDIJ:  cpu time    0.12: real time    0.12
     EDDAV:  cpu time    1.88: real time    1.99
       DOS:  cpu time    0.00: real time    0.00
    CHARGE:  cpu time    0.04: real time    0.05
    MIXING:  cpu time    0.00: real time    0.00
    --------------------------------------------
      LOOP:  cpu time    2.28: real time    2.41

 eigenvalue-minimisations  :   736
 total energy-change (2. order) : 0.6393299E-02  (-0.6796530E-02)
 number of electron     130.0000726 magnetization 
 augmentation part       40.7543934 magnetization 

 Broyden mixing:
  rms(total) = 0.55162E-01    rms(broyden)= 0.54836E-01
  rms(prec ) = 0.74702E-01
  weight for this iteration     100.00

 eigenvalues of (default mixing * dielectric matrix)
  average eigenvalue GAMMA=   0.8209
  2.3684  1.1881  0.8833  0.1811  0.4955  0.3149  0.3149

 Free energy of the ion-electron system (eV)
  ---------------------------------------------------
  alpha Z        PSCENC =       461.68925780
  Ewald energy   TEWEN  =     16263.57383177
  -1/2 Hartree   DENC   =    -26192.09217559
  -exchange  EXHF       =         0.00000000
  -V(xc)+E(xc)   XCENC  =        37.15864492
  PAW double counting   =      7612.17806892    -7272.92068999
  entropy T*S    EENTRO =        -0.06159832
  eigenvalues    EBANDS =      -458.52951603
  atomic energy  EATOM  =      9477.68310066
  ---------------------------------------------------
  free energy    TOTEN  =       -71.32107587 eV

  energy without entropy =      -71.25947755  energy(sigma->0) =      -71.30054310


--------------------------------------------------------------------------------------------------------




----------------------------------------- Iteration    1(  13)  ---------------------------------------


    POTLOK:  cpu time    0.02: real time    0.02
    SETDIJ:  cpu time    0.01: real time    0.01
     EDDAV:  cpu time    1.58: real time    1.58
       DOS:  cpu time    0.00: real time    0.00
    CHARGE:  cpu time    0.04: real time    0.05
    MIXING:  cpu time    0.00: real time    0.00
    --------------------------------------------
      LOOP:  cpu time    1.67: real time    1.68

 eigenvalue-minimisations  :   864
 total energy-change (2. order) : 0.2548272E-02  (-0.2629283E-02)
 number of electron     130.0000726 magnetization 
 augmentation part       40.7572280 magnetization 

 Broyden mixing:
  rms(total) = 0.30655E-01    rms(broyden)= 0.30176E-01
  rms(prec ) = 0.39421E-01
  weight for this iteration     100.00

 eigenvalues of (default mixing * dielectric matrix)
  average eigenvalue GAMMA=   0.8348
  2.4961  1.1544  1.1544  0.7444  0.1811  0.3561  0.3121  0.2797

 Free energy of the ion-electron system (eV)
  ---------------------------------------------------
  alpha Z        PSCENC =       461.68925780
  Ewald energy   TEWEN  =     16263.57383177
  -1/2 Hartree   DENC   =    -26193.01794596
  -exchange  EXHF       =         0.00000000
  -V(xc)+E(xc)   XCENC  =        37.15678609
  PAW double counting   =      7623.07347110    -7284.25178007
  entropy T*S    EENTRO =        -0.05528624
  eigenvalues    EBANDS =      -457.16996275
  atomic energy  EATOM  =      9477.68310066
  ---------------------------------------------------
  free energy    TOTEN  =       -71.31852760 eV

  energy without entropy =      -71.26324137  energy(sigma->0) =      -71.30009886


--------------------------------------------------------------------------------------------------------




----------------------------------------- Iteration    1(  14)  ---------------------------------------


    POTLOK:  cpu time    0.02: real time    0.02
    SETDIJ:  cpu time    0.01: real time    0.01
     EDDAV:  cpu time    1.42: real time    1.42
       DOS:  cpu time    0.00: real time    0.00
    CHARGE:  cpu time    0.04: real time    0.04
    MIXING:  cpu time    0.00: real time    0.00
    --------------------------------------------
      LOOP:  cpu time    1.50: real time    1.51

 eigenvalue-minimisations  :   800
 total energy-change (2. order) : 0.7319777E-03  (-0.6403638E-03)
 number of electron     130.0000727 magnetization 
 augmentation part       40.7590242 magnetization 

 Broyden mixing:
  rms(total) = 0.10278E-01    rms(broyden)= 0.99588E-02
  rms(prec ) = 0.13952E-01
  weight for this iteration     100.00

 eigenvalues of (default mixing * dielectric matrix)
  average eigenvalue GAMMA=   0.8065
  2.5013  1.2085  1.2085  0.6982  0.5361  0.1811  0.3267  0.3267  0.2710

 Free energy of the ion-electron system (eV)
  ---------------------------------------------------
  alpha Z        PSCENC =       461.68925780
  Ewald energy   TEWEN  =     16263.57383177
  -1/2 Hartree   DENC   =    -26194.44055650
  -exchange  EXHF       =         0.00000000
  -V(xc)+E(xc)   XCENC  =        37.15283586
  PAW double counting   =      7630.19505246    -7291.64416251
  entropy T*S    EENTRO =        -0.05897695
  eigenvalues    EBANDS =      -455.46817822
  atomic energy  EATOM  =      9477.68310066
  ---------------------------------------------------
  free energy    TOTEN  =       -71.31779562 eV

  energy without entropy =      -71.25881867  energy(sigma->0) =      -71.29813664


--------------------------------------------------------------------------------------------------------




----------------------------------------- Iteration    1(  15)  ---------------------------------------


    POTLOK:  cpu time    0.02: real time    0.02
    SETDIJ:  cpu time    0.01: real time    0.01
     EDDAV:  cpu time    1.48: real time    1.48
       DOS:  cpu time    0.00: real time    0.00
    CHARGE:  cpu time    0.04: real time    0.05
    MIXING:  cpu time    0.00: real time    0.00
    --------------------------------------------
      LOOP:  cpu time    1.56: real time    1.58

 eigenvalue-minimisations  :   832
 total energy-change (2. order) : 0.4687492E-04  (-0.8158448E-04)
 number of electron     130.0000727 magnetization 
 augmentation part       40.7599041 magnetization 

 Broyden mixing:
  rms(total) = 0.53317E-02    rms(broyden)= 0.53018E-02
  rms(prec ) = 0.89702E-02
  weight for this iteration     100.00

 eigenvalues of (default mixing * dielectric matrix)
  average eigenvalue GAMMA=   0.9218
  2.4462  2.2858  1.1535  0.9537  0.8648  0.1811  0.4038  0.3465  0.3132  0.2697

 Free energy of the ion-electron system (eV)
  ---------------------------------------------------
  alpha Z        PSCENC =       461.68925780
  Ewald energy   TEWEN  =     16263.57383177
  -1/2 Hartree   DENC   =    -26194.97846661
  -exchange  EXHF       =         0.00000000
  -V(xc)+E(xc)   XCENC  =        37.15465707
  PAW double counting   =      7630.41465386    -7291.85128483
  entropy T*S    EENTRO =        -0.05795814
  eigenvalues    EBANDS =      -454.94554033
  atomic energy  EATOM  =      9477.68310066
  ---------------------------------------------------
  free energy    TOTEN  =       -71.31774875 eV

  energy without entropy =      -71.25979061  energy(sigma->0) =      -71.29842937


--------------------------------------------------------------------------------------------------------




----------------------------------------- Iteration    1(  16)  ---------------------------------------


    POTLOK:  cpu time    0.03: real time    0.03
    SETDIJ:  cpu time    0.01: real time    0.01
     EDDAV:  cpu time    1.00: real time    1.00
       DOS:  cpu time    0.00: real time    0.00
    CHARGE:  cpu time    0.05: real time    0.05
    MIXING:  cpu time    0.00: real time    0.00
    --------------------------------------------
      LOOP:  cpu time    1.09: real time    1.10

 eigenvalue-minimisations  :   608
 total energy-change (2. order) : 0.1532471E-04  (-0.2372132E-04)
 number of electron     130.0000727 magnetization 
 augmentation part       40.7614254 magnetization 

 Broyden mixing:
  rms(total) = 0.26819E-02    rms(broyden)= 0.26754E-02
  rms(prec ) = 0.54605E-02
  weight for this iteration     100.00

 eigenvalues of (default mixing * dielectric matrix)
  average eigenvalue GAMMA=   0.9838
  2.6484  2.3256  1.2224  1.2224  1.0885  0.7995  0.1811  0.4080  0.3425  0.3143
  0.2695

 Free energy of the ion-electron system (eV)
  ---------------------------------------------------
  alpha Z        PSCENC =       461.68925780
  Ewald energy   TEWEN  =     16263.57383177
  -1/2 Hartree   DENC   =    -26197.13235984
  -exchange  EXHF       =         0.00000000
  -V(xc)+E(xc)   XCENC  =        37.16708546
  PAW double counting   =      7629.94253896    -7291.26706064
  entropy T*S    EENTRO =        -0.05809058
  eigenvalues    EBANDS =      -452.91603701
  atomic energy  EATOM  =      9477.68310066
  ---------------------------------------------------
  free energy    TOTEN  =       -71.31773342 eV

  energy without entropy =      -71.25964285  energy(sigma->0) =      -71.29836990


--------------------------------------------------------------------------------------------------------




----------------------------------------- Iteration    1(  17)  ---------------------------------------


    POTLOK:  cpu time    0.02: real time    0.02
    SETDIJ:  cpu time    0.01: real time    0.01
     EDDAV:  cpu time    1.16: real time    1.16
       DOS:  cpu time    0.00: real time    0.00
    CHARGE:  cpu time    0.05: real time    0.05
    MIXING:  cpu time    0.00: real time    0.00
    --------------------------------------------
      LOOP:  cpu time    1.25: real time    1.26

 eigenvalue-minimisations  :   672
 total energy-change (2. order) :-0.1246053E-03  (-0.9130006E-05)
 number of electron     130.0000727 magnetization 
 augmentation part       40.7594465 magnetization 

 Broyden mixing:
  rms(total) = 0.18907E-02    rms(broyden)= 0.18783E-02
  rms(prec ) = 0.36028E-02
  weight for this iteration     100.00

 eigenvalues of (default mixing * dielectric matrix)
  average eigenvalue GAMMA=   1.1052
  3.3547  2.4907  1.8849  1.1318  1.1318  0.9622  0.7904  0.1811  0.4078  0.3428
  0.3143  0.2695

 Free energy of the ion-electron system (eV)
  ---------------------------------------------------
  alpha Z        PSCENC =       461.68925780
  Ewald energy   TEWEN  =     16263.57383177
  -1/2 Hartree   DENC   =    -26198.38221107
  -exchange  EXHF       =         0.00000000
  -V(xc)+E(xc)   XCENC  =        37.17677368
  PAW double counting   =      7629.98672408    -7291.29966546
  entropy T*S    EENTRO =        -0.05814835
  eigenvalues    EBANDS =      -451.68752113
  atomic energy  EATOM  =      9477.68310066
  ---------------------------------------------------
  free energy    TOTEN  =       -71.31785803 eV

  energy without entropy =      -71.25970968  energy(sigma->0) =      -71.29847524


--------------------------------------------------------------------------------------------------------




----------------------------------------- Iteration    1(  18)  ---------------------------------------


    POTLOK:  cpu time    0.02: real time    0.02
    SETDIJ:  cpu time    0.01: real time    0.01
     EDDAV:  cpu time    1.88: real time    1.94
       DOS:  cpu time    0.10: real time    0.11
    CHARGE:  cpu time    0.05: real time    0.05
    MIXING:  cpu time    0.01: real time    0.01
    --------------------------------------------
      LOOP:  cpu time    2.08: real time    2.14

 eigenvalue-minimisations  :   640
 total energy-change (2. order) :-0.2606548E-03  (-0.5450148E-05)
 number of electron     130.0000727 magnetization 
 augmentation part       40.7588527 magnetization 

 Broyden mixing:
  rms(total) = 0.12400E-02    rms(broyden)= 0.12394E-02
  rms(prec ) = 0.19392E-02
  weight for this iteration     100.00

 eigenvalues of (default mixing * dielectric matrix)
  average eigenvalue GAMMA=   1.2208
  4.3462  2.6382  2.1093  1.2345  1.2345  0.9951  0.9951  0.8029  0.1811  0.4077
  0.3428  0.3143  0.2695

 Free energy of the ion-electron system (eV)
  ---------------------------------------------------
  alpha Z        PSCENC =       461.68925780
  Ewald energy   TEWEN  =     16263.57383177
  -1/2 Hartree   DENC   =    -26199.82622446
  -exchange  EXHF       =         0.00000000
  -V(xc)+E(xc)   XCENC  =        37.18255192
  PAW double counting   =      7629.15201342    -7290.46016646
  entropy T*S    EENTRO =        -0.05809656
  eigenvalues    EBANDS =      -450.25438678
  atomic energy  EATOM  =      9477.68310066
  ---------------------------------------------------
  free energy    TOTEN  =       -71.31811868 eV

  energy without entropy =      -71.26002213  energy(sigma->0) =      -71.29875317


--------------------------------------------------------------------------------------------------------




----------------------------------------- Iteration    1(  19)  ---------------------------------------


    POTLOK:  cpu time    0.07: real time    0.07
    SETDIJ:  cpu time    0.02: real time    0.02
     EDDAV:  cpu time    3.67: real time    4.17
       DOS:  cpu time    0.00: real time    0.00
    CHARGE:  cpu time    0.04: real time    0.04
    MIXING:  cpu time    0.00: real time    0.00
    --------------------------------------------
      LOOP:  cpu time    3.81: real time    4.32

 eigenvalue-minimisations  :   704
 total energy-change (2. order) :-0.1574094E-03  (-0.1144677E-05)
 number of electron     130.0000727 magnetization 
 augmentation part       40.7596144 magnetization 

 Broyden mixing:
  rms(total) = 0.46814E-03    rms(broyden)= 0.46722E-03
  rms(prec ) = 0.83543E-03
  weight for this iteration     100.00

 eigenvalues of (default mixing * dielectric matrix)
  average eigenvalue GAMMA=   1.3571
  5.4351  2.8218  2.4398  1.7472  1.1664  1.1664  0.9561  0.9561  0.7945  0.1811
  0.4078  0.3428  0.3143  0.2695

 Free energy of the ion-electron system (eV)
  ---------------------------------------------------
  alpha Z        PSCENC =       461.68925780
  Ewald energy   TEWEN  =     16263.57383177
  -1/2 Hartree   DENC   =    -26200.19599352
  -exchange  EXHF       =         0.00000000
  -V(xc)+E(xc)   XCENC  =        37.18179351
  PAW double counting   =      7628.74821712    -7290.06518232
  entropy T*S    EENTRO =        -0.05813899
  eigenvalues    EBANDS =      -449.87516214
  atomic energy  EATOM  =      9477.68310066
  ---------------------------------------------------
  free energy    TOTEN  =       -71.31827609 eV

  energy without entropy =      -71.26013711  energy(sigma->0) =      -71.29889643


--------------------------------------------------------------------------------------------------------




----------------------------------------- Iteration    1(  20)  ---------------------------------------


    POTLOK:  cpu time    0.02: real time    0.02
    SETDIJ:  cpu time    0.01: real time    0.01
     EDDAV:  cpu time    1.05: real time    1.05
       DOS:  cpu time    0.00: real time    0.00
    CHARGE:  cpu time    0.04: real time    0.05
    MIXING:  cpu time    0.00: real time    0.00
    --------------------------------------------
      LOOP:  cpu time    1.13: real time    1.16

 eigenvalue-minimisations  :   640
 total energy-change (2. order) :-0.1310697E-03  (-0.5866059E-06)
 number of electron     130.0000727 magnetization 
 augmentation part       40.7591915 magnetization 

 Broyden mixing:
  rms(total) = 0.40904E-03    rms(broyden)= 0.40797E-03
  rms(prec ) = 0.63312E-03
  weight for this iteration     100.00

 eigenvalues of (default mixing * dielectric matrix)
  average eigenvalue GAMMA=   1.4795
  6.2179  3.3406  2.5524  2.0822  1.4464  1.1775  1.1775  0.9453  0.9453  0.7917
  0.1811  0.4078  0.3428  0.3143  0.2695

 Free energy of the ion-electron system (eV)
  ---------------------------------------------------
  alpha Z        PSCENC =       461.68925780
  Ewald energy   TEWEN  =     16263.57383177
  -1/2 Hartree   DENC   =    -26200.42245429
  -exchange  EXHF       =         0.00000000
  -V(xc)+E(xc)   XCENC  =        37.18199030
  PAW double counting   =      7628.90222858    -7290.23090536
  entropy T*S    EENTRO =        -0.05812116
  eigenvalues    EBANDS =      -449.63733547
  atomic energy  EATOM  =      9477.68310066
  ---------------------------------------------------
  free energy    TOTEN  =       -71.31840716 eV

  energy without entropy =      -71.26028601  energy(sigma->0) =      -71.29903344


--------------------------------------------------------------------------------------------------------




----------------------------------------- Iteration    1(  21)  ---------------------------------------


    POTLOK:  cpu time    0.03: real time    0.03
    SETDIJ:  cpu time    0.01: real time    0.01
     EDDAV:  cpu time    3.79: real time    4.17
       DOS:  cpu time    0.13: real time    0.13
    CHARGE:  cpu time    0.05: real time    0.05
    MIXING:  cpu time    0.00: real time    0.00
    --------------------------------------------
      LOOP:  cpu time    4.00: real time    4.39

 eigenvalue-minimisations  :   640
 total energy-change (2. order) :-0.6315753E-04  (-0.1786335E-06)
 number of electron     130.0000727 magnetization 
 augmentation part       40.7591687 magnetization 

 Broyden mixing:
  rms(total) = 0.16434E-03    rms(broyden)= 0.16404E-03
  rms(prec ) = 0.23278E-03
  weight for this iteration     100.00

 eigenvalues of (default mixing * dielectric matrix)
  average eigenvalue GAMMA=   1.5555
  6.8831  3.7369  2.5609  2.3999  1.6203  1.1974  1.1974  1.0886  0.9476  0.9476
  0.7927  0.1811  0.2695  0.3143  0.3428  0.4078

 Free energy of the ion-electron system (eV)
  ---------------------------------------------------
  alpha Z        PSCENC =       461.68925780
  Ewald energy   TEWEN  =     16263.57383177
  -1/2 Hartree   DENC   =    -26200.50944683
  -exchange  EXHF       =         0.00000000
  -V(xc)+E(xc)   XCENC  =        37.18191925
  PAW double counting   =      7629.02617574    -7290.35373723
  entropy T*S    EENTRO =        -0.05811843
  eigenvalues    EBANDS =      -449.55145304
  atomic energy  EATOM  =      9477.68310066
  ---------------------------------------------------
  free energy    TOTEN  =       -71.31847032 eV

  energy without entropy =      -71.26035189  energy(sigma->0) =      -71.29909751


--------------------------------------------------------------------------------------------------------




----------------------------------------- Iteration    1(  22)  ---------------------------------------


    POTLOK:  cpu time    0.02: real time    0.02
    SETDIJ:  cpu time    0.01: real time    0.01
     EDDAV:  cpu time    0.77: real time    0.77
       DOS:  cpu time    0.00: real time    0.00
    CHARGE:  cpu time    0.05: real time    0.05
    MIXING:  cpu time    0.00: real time    0.00
    --------------------------------------------
      LOOP:  cpu time    0.86: real time    0.87

 eigenvalue-minimisations  :   448
 total energy-change (2. order) :-0.1502182E-04  (-0.4800903E-07)
 number of electron     130.0000727 magnetization 
 augmentation part       40.7592911 magnetization 

 Broyden mixing:
  rms(total) = 0.66371E-04    rms(broyden)= 0.66204E-04
  rms(prec ) = 0.10629E-03
  weight for this iteration     100.00

 eigenvalues of (default mixing * dielectric matrix)
  average eigenvalue GAMMA=   1.6267
  7.6645  3.8836  2.8392  2.4206  1.8736  1.4955  1.1805  1.1805  0.1811  0.2695
  0.3143  0.3428  0.4078  0.9474  0.9474  0.7926  0.9131

 Free energy of the ion-electron system (eV)
  ---------------------------------------------------
  alpha Z        PSCENC =       461.68925780
  Ewald energy   TEWEN  =     16263.57383177
  -1/2 Hartree   DENC   =    -26200.53483924
  -exchange  EXHF       =         0.00000000
  -V(xc)+E(xc)   XCENC  =        37.18182070
  PAW double counting   =      7629.03136927    -7290.35577751
  entropy T*S    EENTRO =        -0.05811225
  eigenvalues    EBANDS =      -449.52913654
  atomic energy  EATOM  =      9477.68310066
  ---------------------------------------------------
  free energy    TOTEN  =       -71.31848534 eV

  energy without entropy =      -71.26037310  energy(sigma->0) =      -71.29911459


--------------------------------------------------------------------------------------------------------




----------------------------------------- Iteration    1(  23)  ---------------------------------------


    POTLOK:  cpu time    0.02: real time    0.02
    SETDIJ:  cpu time    0.01: real time    0.01
     EDDAV:  cpu time    1.00: real time    1.00
       DOS:  cpu time    0.00: real time    0.00
    CHARGE:  cpu time    0.04: real time    0.04
    MIXING:  cpu time    0.00: real time    0.00
    --------------------------------------------
      LOOP:  cpu time    1.09: real time    1.11

 eigenvalue-minimisations  :   544
 total energy-change (2. order) :-0.3579382E-05  (-0.2106817E-07)
 number of electron     130.0000727 magnetization 
 augmentation part       40.7592455 magnetization 

 Broyden mixing:
  rms(total) = 0.40944E-04    rms(broyden)= 0.40728E-04
  rms(prec ) = 0.69084E-04
  weight for this iteration     100.00

 eigenvalues of (default mixing * dielectric matrix)
  average eigenvalue GAMMA=   1.6593
  7.6844  4.5204  2.7946  2.5632  2.0906  1.6243  1.1899  1.1899  0.1811  0.2695
  0.3143  0.3428  0.4078  1.1621  0.9367  0.9367  0.7926  0.8671

 Free energy of the ion-electron system (eV)
  ---------------------------------------------------
  alpha Z        PSCENC =       461.68925780
  Ewald energy   TEWEN  =     16263.57383177
  -1/2 Hartree   DENC   =    -26200.54606042
  -exchange  EXHF       =         0.00000000
  -V(xc)+E(xc)   XCENC  =        37.18189723
  PAW double counting   =      7629.03004971    -7290.35379163
  entropy T*S    EENTRO =        -0.05811251
  eigenvalues    EBANDS =      -449.51866153
  atomic energy  EATOM  =      9477.68310066
  ---------------------------------------------------
  free energy    TOTEN  =       -71.31848892 eV

  energy without entropy =      -71.26037641  energy(sigma->0) =      -71.29911809


--------------------------------------------------------------------------------------------------------




----------------------------------------- Iteration    1(  24)  ---------------------------------------


    POTLOK:  cpu time    0.18: real time    0.20
    SETDIJ:  cpu time    0.12: real time    0.14
     EDDAV:  cpu time    1.70: real time    1.75
       DOS:  cpu time    0.00: real time    0.00
    CHARGE:  cpu time    0.04: real time    0.05
    MIXING:  cpu time    0.00: real time    0.00
    --------------------------------------------
      LOOP:  cpu time    2.06: real time    2.18

 eigenvalue-minimisations  :   512
 total energy-change (2. order) :-0.1016717E-05  (-0.6997724E-08)
 number of electron     130.0000727 magnetization 
 augmentation part       40.7592613 magnetization 

 Broyden mixing:
  rms(total) = 0.17973E-04    rms(broyden)= 0.17919E-04
  rms(prec ) = 0.33495E-04
  weight for this iteration     100.00

 eigenvalues of (default mixing * dielectric matrix)
  average eigenvalue GAMMA=   1.6650
  7.7623  4.7438  2.9305  2.4738  2.3152  1.6657  0.1811  0.2695  0.3143  0.3428
  0.4078  1.4105  1.1744  1.1744  0.9455  0.9455  0.9937  0.7920  0.7920

 Free energy of the ion-electron system (eV)
  ---------------------------------------------------
  alpha Z        PSCENC =       461.68925780
  Ewald energy   TEWEN  =     16263.57383177
  -1/2 Hartree   DENC   =    -26200.54886338
  -exchange  EXHF       =         0.00000000
  -V(xc)+E(xc)   XCENC  =        37.18189674
  PAW double counting   =      7629.01293157    -7290.33660630
  entropy T*S    EENTRO =        -0.05811288
  eigenvalues    EBANDS =      -449.51592591
  atomic energy  EATOM  =      9477.68310066
  ---------------------------------------------------
  free energy    TOTEN  =       -71.31848994 eV

  energy without entropy =      -71.26037706  energy(sigma->0) =      -71.29911898


--------------------------------------------------------------------------------------------------------




----------------------------------------- Iteration    1(  25)  ---------------------------------------


    POTLOK:  cpu time    0.02: real time    0.02
    SETDIJ:  cpu time    0.01: real time    0.01
     EDDAV:  cpu time    2.20: real time    2.29
       DOS:  cpu time    0.00: real time    0.00
    --------------------------------------------
      LOOP:  cpu time    2.24: real time    2.34

 eigenvalue-minimisations  :   448
 total energy-change (2. order) :-0.2954366E-06  (-0.2918688E-08)
 number of electron     130.0000727 magnetization 
 augmentation part       40.7592613 magnetization 

 Free energy of the ion-electron system (eV)
  ---------------------------------------------------
  alpha Z        PSCENC =       461.68925780
  Ewald energy   TEWEN  =     16263.57383177
  -1/2 Hartree   DENC   =    -26200.55202013
  -exchange  EXHF       =         0.00000000
  -V(xc)+E(xc)   XCENC  =        37.18190947
  PAW double counting   =      7629.01121386    -7290.33522981
  entropy T*S    EENTRO =        -0.05811321
  eigenvalues    EBANDS =      -449.51244064
  atomic energy  EATOM  =      9477.68310066
  ---------------------------------------------------
  free energy    TOTEN  =       -71.31849023 eV

  energy without entropy =      -71.26037703  energy(sigma->0) =      -71.29911917


--------------------------------------------------------------------------------------------------------




 average (electrostatic) potential at core
  the test charge radii are     1.2059
  (the norm of the test charge is              1.0000)
       1 -56.5932       2 -56.5932       3 -56.5932       4 -56.5932       5 -57.1294
       6 -57.1899       7 -57.4259       8 -57.1294       9 -56.9605      10 -56.9605
      11 -56.9605      12 -56.9605      13 -56.6241
 
 
 
 E-fermi :  -0.5198     XC(G=0):  -6.2389     alpha+bet : -4.8800


 k-point   1 :       0.0000    0.0000    0.0000
  band No.  band energies     occupation 
      1      -9.2618      2.00000
      2      -7.2856      2.00000
      3      -6.7923      2.00000
      4      -6.7618      2.00000
      5      -6.7151      2.00000
      6      -6.7151      2.00000
      7      -6.5491      2.00000
      8      -6.4957      2.00000
      9      -6.2280      2.00000
     10      -6.2098      2.00000
     11      -6.0321      2.00000
     12      -6.0321      2.00000
     13      -5.4315      2.00000
     14      -5.4315      2.00000
     15      -5.2468      2.00000
     16      -5.2124      2.00000
     17      -4.6588      2.00000
     18      -4.4031      2.00000
     19      -4.3517      2.00000
     20      -4.3517      2.00000
     21      -4.2679      2.00000
     22      -4.1672      2.00000
     23      -4.1309      2.00000
     24      -4.1251      2.00000
     25      -3.9119      2.00000
     26      -3.9119      2.00000
     27      -3.6187      2.00000
     28      -3.5772      2.00000
     29      -3.5772      2.00000
     30      -3.5637      2.00000
     31      -3.5637      2.00000
     32      -3.4573      2.00000
     33      -3.4009      2.00000
     34      -3.4009      2.00000
     35      -3.3112      2.00000
     36      -2.9129      2.00000
     37      -2.9129      2.00000
     38      -2.9043      2.00000
     39      -2.8309      2.00000
     40      -2.3284      2.00000
     41      -2.1892      2.00000
     42      -2.1892      2.00000
     43      -1.8778      2.00000
     44      -1.7426      2.00000
     45      -1.7254      2.00000
     46      -1.7254      2.00000
     47      -1.6126      2.00000
     48      -1.4944      2.00000
     49      -1.4838      2.00000
     50      -1.4726      2.00000
     51      -1.1924      2.00002
     52      -1.0775      2.00058
     53      -1.0775      2.00058
     54      -1.0242      2.00210
     55      -0.9654      2.00715
     56      -0.9654      2.00715
     57      -0.8939      2.02373
     58      -0.6880      1.99973
     59      -0.6880      1.99973
     60      -0.6275      1.78110
     61      -0.5275      1.06536
     62      -0.3956      0.14186
     63      -0.3493     -0.00456
     64      -0.3493     -0.00456
     65      -0.1765     -0.03570
     66       0.0164     -0.00099
     67       0.1427     -0.00003
     68       0.1972      0.00000
     69       0.4889      0.00000
     70       0.5623      0.00000
     71       0.8104      0.00000
     72       1.1757      0.00000
     73       1.1757      0.00000
     74       1.3807      0.00000
     75       1.4159      0.00000
     76       2.7064      0.00000
     77       2.7064      0.00000
     78       3.1168      0.00000
     79       3.2584      0.00000
     80       3.2584      0.00000
     81       3.7092      0.00000
     82       3.7092      0.00000
     83       4.7592      0.00000
     84       5.4337      0.00000
     85       6.5488      0.00000
     86       6.5488      0.00000
     87       6.5500      0.00000
     88       7.1558      0.00000
     89       7.1560      0.00000
     90       7.1977      0.00000
     91       7.4755      0.00000
     92       7.8919      0.00000
     93       7.9093      0.00000
     94       7.9093      0.00000
     95       8.1824      0.00000
     96       8.6223      0.00000

 k-point   2 :       0.3333    0.0000    0.0000
  band No.  band energies     occupation 
      1      -8.6310      2.00000
      2      -7.3274      2.00000
      3      -6.8993      2.00000
      4      -6.5707      2.00000
      5      -6.2833      2.00000
      6      -6.2256      2.00000
      7      -6.1712      2.00000
      8      -6.0981      2.00000
      9      -5.9652      2.00000
     10      -5.9261      2.00000
     11      -5.8292      2.00000
     12      -5.6920      2.00000
     13      -5.5977      2.00000
     14      -5.2103      2.00000
     15      -5.0147      2.00000
     16      -4.9006      2.00000
     17      -4.8001      2.00000
     18      -4.6878      2.00000
     19      -4.6311      2.00000
     20      -4.6304      2.00000
     21      -4.3954      2.00000
     22      -4.3374      2.00000
     23      -4.1680      2.00000
     24      -4.1036      2.00000
     25      -3.9595      2.00000
     26      -3.8289      2.00000
     27      -3.7827      2.00000
     28      -3.7087      2.00000
     29      -3.5861      2.00000
     30      -3.4042      2.00000
     31      -3.3797      2.00000
     32      -3.3252      2.00000
     33      -3.2638      2.00000
     34      -3.2503      2.00000
     35      -3.0886      2.00000
     36      -3.0818      2.00000
     37      -3.0563      2.00000
     38      -2.9938      2.00000
     39      -2.6812      2.00000
     40      -2.6598      2.00000
     41      -2.4212      2.00000
     42      -2.4061      2.00000
     43      -2.3330      2.00000
     44      -2.3129      2.00000
     45      -2.1040      2.00000
     46      -2.0057      2.00000
     47      -1.9205      2.00000
     48      -1.7625      2.00000
     49      -1.6956      2.00000
     50      -1.6190      2.00000
     51      -1.5573      2.00000
     52      -1.5494      2.00000
     53      -1.4380      2.00000
     54      -1.4077      2.00000
     55      -1.3839      2.00000
     56      -1.2670      2.00000
     57      -1.1657      2.00005
     58      -1.1595      2.00006
     59      -1.0079      2.00300
     60      -0.9005      2.02154
     61      -0.8813      2.02826
     62      -0.7585      2.07061
     63      -0.6120      1.69586
     64      -0.5902      1.55677
     65      -0.5398      1.16857
     66      -0.4223      0.27391
     67      -0.3350     -0.03054
     68      -0.2447     -0.06528
     69      -0.1002     -0.01151
     70      -0.0855     -0.00885
     71       1.3354      0.00000
     72       1.7335      0.00000
     73       1.9564      0.00000
     74       2.1973      0.00000
     75       2.4453      0.00000
     76       2.5923      0.00000
     77       2.6313      0.00000
     78       3.3705      0.00000
     79       3.7646      0.00000
     80       4.2656      0.00000
     81       4.5615      0.00000
     82       4.7599      0.00000
     83       4.8781      0.00000
     84       5.1141      0.00000
     85       5.5173      0.00000
     86       5.9603      0.00000
     87       6.2678      0.00000
     88       6.7596      0.00000
     89       6.8860      0.00000
     90       7.0368      0.00000
     91       7.1321      0.00000
     92       7.7703      0.00000
     93       8.0367      0.00000
     94       8.1561      0.00000
     95       8.2843      0.00000
     96       8.9963      0.00000

 k-point   3 :       0.3333    0.3333    0.0000
  band No.  band energies     occupation 
      1      -8.0069      2.00000
      2      -6.8621      2.00000
      3      -6.6682      2.00000
      4      -6.4361      2.00000
      5      -6.0571      2.00000
      6      -6.0500      2.00000
      7      -5.9224      2.00000
      8      -5.6583      2.00000
      9      -5.5875      2.00000
     10      -5.5643      2.00000
     11      -5.5205      2.00000
     12      -5.4733      2.00000
     13      -5.2647      2.00000
     14      -5.0546      2.00000
     15      -5.0409      2.00000
     16      -4.9107      2.00000
     17      -4.8086      2.00000
     18      -4.8077      2.00000
     19      -4.6443      2.00000
     20      -4.6344      2.00000
     21      -4.4703      2.00000
     22      -4.4210      2.00000
     23      -4.2556      2.00000
     24      -4.1626      2.00000
     25      -4.0603      2.00000
     26      -3.8874      2.00000
     27      -3.8832      2.00000
     28      -3.7513      2.00000
     29      -3.7131      2.00000
     30      -3.6433      2.00000
     31      -3.5248      2.00000
     32      -3.4472      2.00000
     33      -3.4383      2.00000
     34      -3.1306      2.00000
     35      -3.0551      2.00000
     36      -3.0546      2.00000
     37      -3.0358      2.00000
     38      -2.9049      2.00000
     39      -2.8871      2.00000
     40      -2.6003      2.00000
     41      -2.5869      2.00000
     42      -2.5670      2.00000
     43      -2.5641      2.00000
     44      -2.4637      2.00000
     45      -2.4483      2.00000
     46      -2.2731      2.00000
     47      -2.1998      2.00000
     48      -2.0690      2.00000
     49      -1.9411      2.00000
     50      -1.8699      2.00000
     51      -1.8239      2.00000
     52      -1.7660      2.00000
     53      -1.7519      2.00000
     54      -1.5552      2.00000
     55      -1.4021      2.00000
     56      -1.3587      2.00000
     57      -1.3358      2.00000
     58      -1.2988      2.00000
     59      -1.1991      2.00002
     60      -1.1524      2.00007
     61      -1.1062      2.00027
     62      -1.0973      2.00035
     63      -0.9771      2.00569
     64      -0.9619      2.00764
     65      -0.7938      2.06559
     66      -0.5812      1.49392
     67      -0.5678      1.39416
     68      -0.4527      0.46639
     69      -0.4037      0.17805
     70      -0.3086     -0.05999
     71       0.0510     -0.00041
     72       0.2254      0.00000
     73       0.8641      0.00000
[...]
     64      -0.3280     -0.01997
     65      -0.1521     -0.03108
     66      -0.0593     -0.00694
     67       0.0952     -0.00018
     68       0.1863     -0.00001
     69       0.4098      0.00000
     70       0.5217      0.00000
     71       0.8548      0.00000
     72       1.1643      0.00000
     73       1.1643      0.00000
     74       1.3529      0.00000
     75       1.3619      0.00000
     76       2.7015      0.00000
     77       2.7015      0.00000
     78       3.1798      0.00000
     79       3.1901      0.00000
     80       3.1901      0.00000
     81       3.6993      0.00000
     82       3.6993      0.00000
     83       4.7604      0.00000
     84       5.4453      0.00000
     85       6.5485      0.00000
     86       6.6239      0.00000
     87       6.6239      0.00000
     88       7.1253      0.00000
     89       7.2120      0.00000
     90       7.3118      0.00000
     91       7.6280      0.00000
     92       7.8943      0.00000
     93       8.0073      0.00000
     94       8.0073      0.00000
     95       8.2510      0.00000
     96       8.6186      0.00000

 k-point   2 :       0.3333    0.0000    0.0000
  band No.  band energies     occupation 
      1      -8.7692      2.00000
      2      -7.4619      2.00000
      3      -6.9244      2.00000
      4      -6.6982      2.00000
      5      -6.4528      2.00000
      6      -6.3493      2.00000
      7      -6.3153      2.00000
      8      -6.2537      2.00000
      9      -6.0825      2.00000
     10      -6.0415      2.00000
     11      -5.9574      2.00000
     12      -5.8315      2.00000
     13      -5.7291      2.00000
     14      -5.2906      2.00000
     15      -5.0389      2.00000
     16      -4.9731      2.00000
     17      -4.8367      2.00000
     18      -4.7864      2.00000
     19      -4.7128      2.00000
     20      -4.6068      2.00000
     21      -4.5174      2.00000
     22      -4.3633      2.00000
     23      -4.1798      2.00000
     24      -4.1787      2.00000
     25      -4.0055      2.00000
     26      -3.8790      2.00000
     27      -3.8248      2.00000
     28      -3.7172      2.00000
     29      -3.6449      2.00000
     30      -3.5705      2.00000
     31      -3.4264      2.00000
     32      -3.3830      2.00000
     33      -3.3723      2.00000
     34      -3.2117      2.00000
     35      -3.1707      2.00000
     36      -3.1432      2.00000
     37      -3.0568      2.00000
     38      -2.9718      2.00000
     39      -2.7140      2.00000
     40      -2.7062      2.00000
     41      -2.5517      2.00000
     42      -2.5185      2.00000
     43      -2.3027      2.00000
     44      -2.2713      2.00000
     45      -2.1681      2.00000
     46      -2.0245      2.00000
     47      -1.9781      2.00000
     48      -1.7716      2.00000
     49      -1.7249      2.00000
     50      -1.6688      2.00000
     51      -1.6395      2.00000
     52      -1.5313      2.00000
     53      -1.5084      2.00000
     54      -1.4363      2.00000
     55      -1.4152      2.00000
     56      -1.2637      2.00000
     57      -1.1950      2.00001
     58      -1.1572      2.00004
     59      -1.0069      2.00229
     60      -0.9163      2.01358
     61      -0.9068      2.01590
     62      -0.7494      2.07089
     63      -0.6263      1.83941
     64      -0.5997      1.70221
     65      -0.5297      1.19549
     66      -0.3879      0.16675
     67      -0.3418      0.00843
     68      -0.2165     -0.05966
     69      -0.0745     -0.00923
     70      -0.0742     -0.00918
     71       1.3649      0.00000
     72       1.6815      0.00000
     73       1.9370      0.00000
     74       2.2376      0.00000
     75       2.4748      0.00000
     76       2.5419      0.00000
     77       2.6028      0.00000
     78       3.3813      0.00000
     79       3.8275      0.00000
     80       4.3044      0.00000
     81       4.6022      0.00000
     82       4.8005      0.00000
     83       4.8385      0.00000
     84       5.1551      0.00000
     85       5.5507      0.00000
     86       5.9774      0.00000
     87       6.2967      0.00000
     88       6.8203      0.00000
     89       6.8942      0.00000
     90       7.0733      0.00000
     91       7.2655      0.00000
     92       7.8243      0.00000
     93       8.1184      0.00000
     94       8.2027      0.00000
     95       8.3457      0.00000
     96       8.9838      0.00000

 k-point   3 :       0.3333    0.3333    0.0000
  band No.  band energies     occupation 
      1      -8.1427      2.00000
      2      -6.9713      2.00000
      3      -6.8155      2.00000
      4      -6.4606      2.00000
      5      -6.2206      2.00000
      6      -6.1964      2.00000
      7      -6.0284      2.00000
      8      -5.7893      2.00000
      9      -5.7064      2.00000
     10      -5.6822      2.00000
     11      -5.6578      2.00000
     12      -5.6298      2.00000
     13      -5.3440      2.00000
     14      -5.1696      2.00000
     15      -5.1262      2.00000
     16      -5.0186      2.00000
     17      -4.9599      2.00000
     18      -4.8557      2.00000
     19      -4.7166      2.00000
     20      -4.6704      2.00000
     21      -4.4542      2.00000
     22      -4.4474      2.00000
     23      -4.3303      2.00000
     24      -4.1573      2.00000
     25      -4.1482      2.00000
     26      -3.9611      2.00000
     27      -3.9279      2.00000
     28      -3.8385      2.00000
     29      -3.7681      2.00000
     30      -3.7447      2.00000
     31      -3.6396      2.00000
     32      -3.4953      2.00000
     33      -3.4668      2.00000
     34      -3.2403      2.00000
     35      -3.1772      2.00000
     36      -3.0934      2.00000
     37      -3.0850      2.00000
     38      -2.9908      2.00000
     39      -2.8952      2.00000
     40      -2.6723      2.00000
     41      -2.6135      2.00000
     42      -2.6094      2.00000
     43      -2.5434      2.00000
     44      -2.4968      2.00000
     45      -2.4552      2.00000
     46      -2.2904      2.00000
     47      -2.2656      2.00000
     48      -2.1197      2.00000
     49      -2.0197      2.00000
     50      -1.9394      2.00000
     51      -1.9180      2.00000
     52      -1.8066      2.00000
     53      -1.7341      2.00000
     54      -1.6099      2.00000
     55      -1.4271      2.00000
     56      -1.3261      2.00000
     57      -1.2773      2.00000
     58      -1.2611      2.00000
     59      -1.2207      2.00001
     60      -1.1492      2.00005
     61      -1.1260      2.00011
     62      -1.1164      2.00014
     63      -0.9640      2.00566
     64      -0.9639      2.00568
     65      -0.7871      2.06328
     66      -0.5708      1.51461
     67      -0.5547      1.39577
     68      -0.4037      0.24491
     69      -0.3875      0.16466
     70      -0.3000     -0.05629
     71       0.0908     -0.00020
     72       0.2651      0.00000
     73       0.9131      0.00000
     74       1.6878      0.00000
     75       2.3048      0.00000
     76       2.6495      0.00000
     77       3.2575      0.00000
     78       4.1672      0.00000
     79       4.6866      0.00000
     80       5.2974      0.00000
     81       5.3752      0.00000
     82       5.6051      0.00000
     83       5.7542      0.00000
     84       6.3471      0.00000
     85       6.5672      0.00000
     86       6.6398      0.00000
     87       6.7616      0.00000
     88       6.8276      0.00000
     89       7.0350      0.00000
     90       7.5191      0.00000
     91       7.6406      0.00000
     92       7.9831      0.00000
     93       8.3266      0.00000
     94       8.4319      0.00000
     95       8.4929      0.00000
     96       8.6678      0.00000


--------------------------------------------------------------------------------------------------------


 soft charge-density along one line, spin component            1
         0         1         2         3         4         5         6         7         8         9
 total charge-density along one line
 
 pseudopotential strength for first ion, spin component:            1
-10.398   0.008   0.002  -0.008   0.000   0.131  -0.001   0.000
  0.008 -10.381  -0.004  -0.004   0.006  -0.001   0.128   0.000
  0.002  -0.004 -10.333   0.004   0.000   0.000   0.000   0.123
 -0.008  -0.004   0.004 -10.381   0.006   0.001   0.001   0.000
  0.000   0.006   0.000   0.006 -10.444   0.000  -0.001   0.000
  0.131  -0.001   0.000   0.001   0.000   0.183   0.000   0.000
 -0.001   0.128   0.000   0.001  -0.001   0.000   0.183   0.000
  0.000   0.000   0.123   0.000   0.000   0.000   0.000   0.184
  0.001   0.001   0.000   0.128  -0.001   0.000   0.000   0.000
  0.000  -0.001   0.000  -0.001   0.136   0.000   0.000   0.000
  0.002   0.004  -0.020  -0.004   0.000   0.000   0.000   0.002
  0.000   0.000   0.001   0.000   0.000   0.000   0.000   0.000
 -0.001  -0.008   0.000   0.000  -0.001   0.000   0.002   0.000
  0.000   0.001  -0.013  -0.001   0.000   0.000   0.000   0.002
  0.001   0.000   0.000  -0.008  -0.001   0.000   0.000   0.000
  0.000   0.008   0.000   0.000   0.000   0.000  -0.001   0.000
  0.000   0.000   0.010   0.000   0.000   0.000   0.000  -0.001
  0.000   0.000   0.000   0.008   0.000   0.000   0.000   0.000
 total augmentation occupancy for first ion, spin component:            1
  1.794   0.014  -0.001  -0.014   0.000  -0.032  -0.005   0.001   0.005   0.000  -0.013   0.000   0.001   0.003  -0.001  -0.001
  0.014   1.721  -0.004  -0.009   0.005  -0.006   0.042   0.001   0.006  -0.002  -0.012   0.006  -0.009   0.001  -0.002  -0.006
 -0.001  -0.004   1.876   0.004   0.000   0.001   0.000  -0.052   0.000   0.000   0.039   0.005  -0.004   0.012   0.004  -0.001
 -0.014  -0.009   0.004   1.721   0.005   0.006   0.006  -0.001   0.042  -0.002   0.012  -0.006  -0.002  -0.001  -0.009   0.000
  0.000   0.005   0.000   0.005   1.613   0.000  -0.002   0.000  -0.002   0.172   0.000   0.000   0.003   0.000   0.003  -0.001
 -0.032  -0.006   0.001   0.006   0.000   0.197  -0.002  -0.001   0.002   0.000   0.015  -0.002  -0.004   0.001   0.004   0.000
 -0.005   0.042   0.000   0.006  -0.002  -0.002   0.187   0.001   0.003   0.001   0.014  -0.002   0.100   0.003   0.004  -0.005
  0.001   0.001  -0.052  -0.001   0.000  -0.001   0.001   0.190  -0.001   0.000  -0.116   0.019   0.002   0.073  -0.002   0.000
  0.005   0.006   0.000   0.042  -0.002   0.002   0.003  -0.001   0.187   0.001  -0.014   0.002   0.004  -0.003   0.100   0.000
  0.000  -0.002   0.000  -0.002   0.172   0.000   0.001   0.000   0.001   0.191   0.000   0.000  -0.003   0.000  -0.003   0.000
 -0.013  -0.012   0.039   0.012   0.000   0.015   0.014  -0.116  -0.014   0.000   1.133  -0.316   0.000   0.093   0.000   0.000
  0.000   0.006   0.005  -0.006   0.000  -0.002  -0.002   0.019   0.002   0.000  -0.316   0.148  -0.002  -0.071   0.002   0.000
  0.001  -0.009  -0.004  -0.002   0.003  -0.004   0.100   0.002   0.004  -0.003   0.000  -0.002   0.164   0.004   0.004  -0.007
  0.003   0.001   0.012  -0.001   0.000   0.001   0.003   0.073  -0.003   0.000   0.093  -0.071   0.004   0.095  -0.004   0.000
 -0.001  -0.002   0.004  -0.009   0.003   0.004   0.004  -0.002   0.100  -0.003   0.000   0.002   0.004  -0.004   0.164   0.000
 -0.001  -0.006  -0.001   0.000  -0.001   0.000  -0.005   0.000   0.000   0.000   0.000   0.000  -0.007   0.000   0.000   0.000
  0.000   0.001  -0.014  -0.001   0.000   0.000   0.000  -0.003   0.000   0.000  -0.009   0.005   0.000  -0.005   0.000   0.000
  0.001   0.000   0.001  -0.006  -0.001   0.000   0.000   0.000  -0.005   0.000   0.000   0.000   0.000   0.000  -0.007   0.000


------------------------ aborting loop because EDIFF is reached ----------------------------------------


    CHARGE:  cpu time    0.04: real time    0.04
    FORLOC:  cpu time    0.00: real time    0.00
    FORNL :  cpu time    0.83: real time    0.83
    STRESS:  cpu time    1.03: real time    1.03
    FORCOR:  cpu time    0.02: real time    0.02
    FORHAR:  cpu time    0.01: real time    0.01
    MIXING:  cpu time    0.00: real time    0.00

  FORCE on cell =-STRESS in cart. coord.  units (eV):
  Direction    XX          YY          ZZ          XY          YZ          ZX
  --------------------------------------------------------------------------------------
  Alpha Z   461.68926   461.68926   461.68926
  Ewald   23596.62104 23596.62104-30442.47356     0.00000     0.00000     0.00000
  Hartree 25917.48011 25917.48011-25154.78940     0.00000     0.00000     0.00000
  E(xc)    -574.51193  -574.51193  -577.18856     0.00000     0.00000     0.00000
  Local  -51353.16096-51353.16096 53744.92533     0.00000     0.00000     0.00000
  n-local  -425.61470  -464.09489  -446.10178    -0.40656     0.00000     0.00000
  augment   507.57215   507.57215   511.73206     0.00000     0.00000     0.00000
  Kinetic  1890.03823  1862.82963  1898.28393     4.93626     0.00000     0.00000
  Fock        0.00000     0.00000     0.00000     0.00000     0.00000     0.00000
  -------------------------------------------------------------------------------------
  Total     -12.73119   -12.73119    -3.92272     0.00000     0.00000     0.00000
  in kB     -38.29957   -38.29957   -11.80082     0.00000     0.00000     0.00000
  external pressure =      -29.47 kB  Pullay stress =        0.00 kB


 VOLUME and BASIS-vectors are now :
 -----------------------------------------------------------------------------
  energy-cutoff  :      230.28
  volume of cell :      532.58
      direct lattice vectors                 reciprocal lattice vectors
     5.620240000  0.000000000  0.000000000     0.177928345  0.000000000  0.000000000
     0.000000000  5.620240000  0.000000000     0.000000000  0.177928345  0.000000000
     0.000000000  0.000000000 16.860720000     0.000000000  0.000000000  0.059309448

  length of vectors
     5.620240000  5.620240000 16.860720000     0.177928345  0.177928345  0.059309448


 FORCES acting on ions
    electron-ion (+dipol)            ewald-force                    non-local-force                 convergence-correction
 -----------------------------------------------------------------------------------------------
   -.377E+01 0.377E+01 0.155E+04   0.395E+01 -.395E+01 -.155E+04   -.455E-01 0.455E-01 0.784E-01   -.177E-02 0.177E-02 0.103E-01
   0.377E+01 0.377E+01 0.155E+04   -.395E+01 -.395E+01 -.155E+04   0.455E-01 0.455E-01 0.784E-01   0.177E-02 0.177E-02 0.103E-01
   -.377E+01 -.377E+01 0.155E+04   0.395E+01 0.395E+01 -.155E+04   -.455E-01 -.455E-01 0.784E-01   -.177E-02 -.177E-02 0.103E-01
   0.377E+01 -.377E+01 0.155E+04   -.395E+01 0.395E+01 -.155E+04   0.455E-01 -.455E-01 0.784E-01   0.177E-02 -.177E-02 0.103E-01
   0.812E-14 -.111E-13 0.169E+03   -.275E-13 -.223E-13 -.170E+03   0.000E+00 0.000E+00 0.328E+00   -.347E-11 -.307E-13 0.659E-02
   -.831E-15 0.187E-12 0.175E+03   -.137E-13 -.702E-16 -.175E+03   0.000E+00 0.000E+00 0.659E+00   -.300E-11 0.387E-13 -.256E-02
   0.182E-12 -.392E-13 0.143E+03   0.848E-13 -.146E-13 -.142E+03   0.000E+00 0.000E+00 -.909E+00   0.361E-11 0.354E-12 0.215E-01
   0.178E-12 0.174E-12 0.169E+03   -.280E-13 -.143E-13 -.170E+03   0.000E+00 0.000E+00 0.328E+00   0.307E-11 -.329E-12 0.659E-02
   -.484E+02 0.484E+02 -.125E+04   0.487E+02 -.487E+02 0.125E+04   -.309E+00 0.309E+00 -.115E+01   -.461E-02 0.461E-02 -.120E-01
   0.484E+02 0.484E+02 -.125E+04   -.487E+02 -.487E+02 0.125E+04   0.309E+00 0.309E+00 -.115E+01   0.461E-02 0.461E-02 -.120E-01
   -.484E+02 -.484E+02 -.125E+04   0.487E+02 0.487E+02 0.125E+04   -.309E+00 -.309E+00 -.115E+01   -.461E-02 -.461E-02 -.120E-01
   0.484E+02 -.484E+02 -.125E+04   -.487E+02 0.487E+02 0.125E+04   0.309E+00 -.309E+00 -.115E+01   0.461E-02 -.461E-02 -.120E-01
   0.232E-13 0.356E-12 -.187E+04   -.285E-13 0.295E-13 0.187E+04   0.000E+00 0.000E+00 0.480E+01   0.322E-11 -.858E-13 0.114E-02
 -----------------------------------------------------------------------------------------------
   -.110E-11 0.175E-11 -.893E+00   0.701E-14 -.273E-13 -.159E-11   0.000E+00 0.000E+00 0.909E+00   0.299E-11 -.413E-12 0.263E-01
 
 
 POSITION                                       TOTAL-FORCE (eV/Angst)
 -----------------------------------------------------------------------------------
      1.40506      1.40506      1.98704         0.132123     -0.132123     -0.009177
      4.21518      1.40506      1.98704        -0.132123     -0.132123     -0.009177
      1.40506      4.21518      1.98704         0.132123      0.132123     -0.009177
      4.21518      4.21518      1.98704        -0.132123      0.132123     -0.009177
      0.00000      0.00000      3.88944         0.000000      0.000000      0.002104
      0.00000      2.81012      3.89432         0.000000      0.000000     -0.000878
      2.81012      0.00000      3.95815         0.000000      0.000000      0.004689
      2.81012      2.81012      3.88944         0.000000      0.000000      0.002104
      1.44092      1.36920      5.85353        -0.001900      0.001900      0.005077
      4.17932      1.36920      5.85353         0.001900      0.001900      0.005077
      1.44092      4.25104      5.85353        -0.001900     -0.001900      0.005077
      4.17932      4.25104      5.85353         0.001900     -0.001900      0.005077
      0.00000      2.81012      7.49145         0.000000      0.000000      0.008385
 -----------------------------------------------------------------------------------
    total drift:                                0.000000      0.000000      0.042555


--------------------------------------------------------------------------------------------------------



  FREE ENERGIE OF THE ION-ELECTRON SYSTEM (eV)
  ---------------------------------------------------
  free  energy   TOTEN  =       -71.46392704 eV

  energy  without entropy=      -71.42346428  energy(sigma->0) =      -71.45043946
 
 d Force = 0.4997371E-05[-0.115E-05, 0.111E-04]  d Energy =-0.1307257E-05 0.630E-05
 d Force =-0.1283783E+01[-0.128E+01,-0.128E+01]  d Ewald  =-0.1283783E+01 0.129E-07


--------------------------------------------------------------------------------------------------------


    POTLOK:  cpu time    0.05: real time    0.05


--------------------------------------------------------------------------------------------------------


 Quasi-Newton relaxation of ions (Broydens 2nd method)
  g(Force)  = 0.113E-04   g(Stress)= 0.000E+00

 retain information from N=  2 steps
 eigenvalues of (default step * inverse Hessian matrix)
  average eigenvalue of G=   4.8024
 eigenvalue spectrum of G is  2.6303  6.9746


--------------------------------------------------------------------------------------------------------


  
 reached required accuracy - stopping structural energy minimisation
 writing wavefunctions
     LOOP+:  cpu time    7.38: real time    7.67
    4ORBIT:  cpu time    0.00: real time    0.00

 total amount of memory used by VASP on root node    36199. kBytes
========================================================================

   base      :      30000. kBytes
   nonl-proj :       2723. kBytes
   fftplans  :        546. kBytes
   grid      :       2079. kBytes
   one-center:        202. kBytes
   wavefun   :        649. kBytes
 
  
  
 General timing and accounting informations for this job:
 ========================================================
  
                  Total CPU time used (sec):      229.665
                            User time (sec):      223.850
                          System time (sec):        5.815
                         Elapsed time (sec):      245.015
  
                   Maximum memory used (kb):       58808.
                   Average memory used (kb):           0.
  
                          Minor page faults:       849809
                          Major page faults:           46
                 Voluntary context switches:         4564
