  Input file(s): optm.xml 

=====================================================
                    QMCPACK 1.0.0 

  (c) Copyright 2003-  QMCPACK developers            

  Subversion branch 6925
  Last modified     2016-05-18 12:43:30 -0400 (Wed, 18 May 2016)
=====================================================
  Global options 
  async_swap=0 : using blocking send/recv for walker swaps 

  MPI Nodes            = 320
  MPI Nodes per group  = 320
  MPI Group ID         = 0
  OMP_NUM_THREADS      = 1

  Input XML = optm.xml

  Project = jopt-h2o
  date    = 2016-05-18 23:06:50 EDT
  host    = nid17235
  user    = auser

  DO NOT READ DENSITY
  Offset for the random number seeds based on time 458
  Random number offset = 458  seeds = 3257-5939
  Creating e particleset
  All the species have the same mass 1
Particles are grouped. Safe to use groups 
e
  Creating ion0 particleset
  All the species have the same mass 1
Particles are grouped. Safe to use groups 
ion0
 Adding WavefunctionFactory for psi0
Using MolecularBasisBuilder<NGOBuilder>
<input node="basisset"  name="LCAOBSet"/>
  Distance table for AA: source/target = e
    PBC=open Orthorhombic=NA
 using Cartesian coordinates with 
  ... ParticleSet::addTable Create Table #0 e_e
  Distance table for AB: source = ion0 target = e
    PBC=open Orthorhombic=NA
 using Cartesian coordinates 
  ... ParticleSet::addTable Create Table #1 ion0_e
<input node="atomicBasisSet"  name="Gaussian-G2"  angular="cartesian"  type="Gaussian"  elementType="O"  normalized="no"/>
  AO BasisSet for O
   Angular momentum expanded in cartesian functions x^lx y^ly z^lz according to Gamess
Using log grid with default values: ri = 1e-06 rf = 100 npts = 1001
   R(n,l,m,s) 0 0 0 0
Expanding Ylm (angular function) according to Gamess using cartesian gaussians
    Gaussian exponent = 0.125346
              contraction=0.055741 nomralized contraction = 0.0296669
    Gaussian exponent = 0.268022
              contraction=0.304848 nomralized contraction = 0.286897
    Gaussian exponent = 0.573098
              contraction=0.453752 nomralized contraction = 0.755101
    Gaussian exponent = 1.22543
              contraction=0.295926 nomralized contraction = 0.870791
    Gaussian exponent = 2.62028
              contraction=0.019567 nomralized contraction = 0.101812
    Gaussian exponent = 5.60282
              contraction=-0.128627 nomralized contraction = -1.18345
    Gaussian exponent = 11.9802
              contraction=0.012024 nomralized contraction = 0.19562
    Gaussian exponent = 25.6168
              contraction=0.000407 nomralized contraction = 0.0117085
    Gaussian exponent = 54.7752
              contraction=-7.59999e-05 nomralized contraction = -0.00386604
Adding 1 cartesian gaussian orbitals for l= 0
   R(n,l,m,s) 1 0 0 0
Expanding Ylm (angular function) according to Gamess using cartesian gaussians
    Gaussian exponent = 1.68663
              contraction=1 nomralized contraction = 3.73922
	Setting GridManager of 1 radial orbital to false
Adding 1 cartesian gaussian orbitals for l= 0
   R(n,l,m,s) 2 0 0 0
Expanding Ylm (angular function) according to Gamess using cartesian gaussians
    Gaussian exponent = 0.237997
              contraction=1 nomralized contraction = 0.860882
	Setting GridManager of 2 radial orbital to false
Adding 1 cartesian gaussian orbitals for l= 0
   R(n,l,m,s) 3 1 0 0
Expanding Ylm (angular function) according to Gamess using cartesian gaussians
    Gaussian exponent = 0.083598
              contraction=0.044958 nomralized contraction = 0.00589571
    Gaussian exponent = 0.167017
              contraction=0.150175 nomralized contraction = 0.046777
    Gaussian exponent = 0.333673
              contraction=0.255999 nomralized contraction = 0.189397
    Gaussian exponent = 0.666627
              contraction=0.281879 nomralized contraction = 0.495337
    Gaussian exponent = 1.33182
              contraction=0.242835 nomralized contraction = 1.01356
    Gaussian exponent = 2.66076
              contraction=0.161134 nomralized contraction = 1.59746
    Gaussian exponent = 5.31578
              contraction=0.082308 nomralized contraction = 1.93814
    Gaussian exponent = 10.6201
              contraction=0.039899 nomralized contraction = 2.23155
    Gaussian exponent = 21.2173
              contraction=0.004679 nomralized contraction = 0.621585
	Setting GridManager of 3 radial orbital to false
Adding 3 cartesian gaussian orbitals for l= 1
   R(n,l,m,s) 4 1 0 0
Expanding Ylm (angular function) according to Gamess using cartesian gaussians
    Gaussian exponent = 0.184696
              contraction=1 nomralized contraction = 0.353229
	Setting GridManager of 4 radial orbital to false
Adding 3 cartesian gaussian orbitals for l= 1
   R(n,l,m,s) 5 1 0 0
Expanding Ylm (angular function) according to Gamess using cartesian gaussians
    Gaussian exponent = 0.600621
              contraction=1 nomralized contraction = 1.54254
	Setting GridManager of 5 radial orbital to false
Adding 3 cartesian gaussian orbitals for l= 1
   R(n,l,m,s) 6 2 0 0
Expanding Ylm (angular function) according to Gamess using cartesian gaussians
    Gaussian exponent = 0.66934
              contraction=1 nomralized contraction = 1.29244
	Setting GridManager of 6 radial orbital to false
Adding 6 cartesian gaussian orbitals for l= 2
   R(n,l,m,s) 7 2 0 0
Expanding Ylm (angular function) according to Gamess using cartesian gaussians
    Gaussian exponent = 2.40428
              contraction=1 nomralized contraction = 12.113
	Setting GridManager of 7 radial orbital to false
Adding 6 cartesian gaussian orbitals for l= 2
   R(n,l,m,s) 8 3 0 0
Expanding Ylm (angular function) according to Gamess using cartesian gaussians
    Gaussian exponent = 1.4231
              contraction=1 nomralized contraction = 4.36308
	Setting GridManager of 8 radial orbital to false
Adding 10 cartesian gaussian orbitals for l= 3
   Maximu Angular Momentum   = 3
   Number of Radial functors = 9
   Basis size                = 34

<input node="atomicBasisSet"  name="Gaussian-G2"  angular="cartesian"  type="Gaussian"  elementType="H"  normalized="no"/>
  AO BasisSet for H
   Angular momentum expanded in cartesian functions x^lx y^ly z^lz according to Gamess
Using log grid with default values: ri = 1e-06 rf = 100 npts = 1001
   R(n,l,m,s) 0 0 0 0
Expanding Ylm (angular function) according to Gamess using cartesian gaussians
    Gaussian exponent = 8.70089
              contraction=0.0627182 nomralized contraction = 0.802752
    Gaussian exponent = 1.95552
              contraction=0.261959 nomralized contraction = 1.09445
    Gaussian exponent = 0.559044
              contraction=0.75701 nomralized contraction = 1.23652
Adding 1 cartesian gaussian orbitals for l= 0
   R(n,l,m,s) 1 0 0 0
Expanding Ylm (angular function) according to Gamess using cartesian gaussians
    Gaussian exponent = 0.164925
              contraction=1 nomralized contraction = 0.653854
	Setting GridManager of 1 radial orbital to false
Adding 1 cartesian gaussian orbitals for l= 0
   R(n,l,m,s) 2 0 0 0
Expanding Ylm (angular function) according to Gamess using cartesian gaussians
    Gaussian exponent = 0.0320625
              contraction=1 nomralized contraction = 0.191431
	Setting GridManager of 2 radial orbital to false
Adding 1 cartesian gaussian orbitals for l= 0
   R(n,l,m,s) 3 1 0 0
Expanding Ylm (angular function) according to Gamess using cartesian gaussians
    Gaussian exponent = 0.790074
              contraction=1 nomralized contraction = 2.17305
	Setting GridManager of 3 radial orbital to false
Adding 3 cartesian gaussian orbitals for l= 1
   R(n,l,m,s) 4 1 0 0
Expanding Ylm (angular function) according to Gamess using cartesian gaussians
    Gaussian exponent = 0.152351
              contraction=1 nomralized contraction = 0.277679
	Setting GridManager of 4 radial orbital to false
Adding 3 cartesian gaussian orbitals for l= 1
   R(n,l,m,s) 5 2 0 0
Expanding Ylm (angular function) according to Gamess using cartesian gaussians
    Gaussian exponent = 0.883818
              contraction=1 nomralized contraction = 2.10215
	Setting GridManager of 5 radial orbital to false
Adding 6 cartesian gaussian orbitals for l= 2
   Maximu Angular Momentum   = 2
   Number of Radial functors = 6
   Basis size                = 15

Built BasisSetBuilder "LCAOBSet" of type molecularorbital
Creating SPOSet in SlaterDetBuilder::put(xmlNodePtr cur).
spo_name = spo-up
 Building SPOset spo-up with LCAOBSet basis set.
Creating LCOrbitalSet with the input coefficients
SPO coefficients are applied by a single dgemm (BLAS3)
Creating SPOSet in SlaterDetBuilder::put(xmlNodePtr cur).
spo_name = spo-dn
 Building SPOset spo-dn with LCAOBSet basis set.
Creating LCOrbitalSet with the input coefficients
SPO coefficients are applied by a single dgemm (BLAS3)
Using Bryan's algorithm for MultiSlaterDeterminant expansion. 
Creating base determinant (up) for MSD expansion. 
Creating base determinant (down) for MSD expansion. 
Found determinant list. 
Reading CSFs.
Found 416 terms in the MSD expansion.
Norm of ci vector (sum of ci^2): 0.984588
Norm of qchem ci vector (sum of qchem_ci^2): 0.984588
Found 99 unique up determinants.
Found 99 unique down determinants.
Number of terms in pairs array: 56
Number of terms in pairs array: 56
CI coefficients are optimizable. 
  FermionWF=MultiSlaterDeterminantFast
  BsplineJastrowBuilder adds a functor with cusp = -0.25
 size = 10 parameters 
 cusp = -0.25
 rcut = 10
Parameter     Name      Value
uu_0 0 1 1  ON 0
uu_1 0 1 1  ON 1
uu_2 0 1 1  ON 2
uu_3 0 1 1  ON 3
uu_4 0 1 1  ON 4
uu_5 0 1 1  ON 5
uu_6 0 1 1  ON 6
uu_7 0 1 1  ON 7
uu_8 0 1 1  ON 8
uu_9 0 1 1  ON 9
  BsplineJastrowBuilder adds a functor with cusp = -0.5
 size = 10 parameters 
 cusp = -0.5
 rcut = 10
Parameter     Name      Value
ud_0 0 1 1  ON 0
ud_1 0 1 1  ON 1
ud_2 0 1 1  ON 2
ud_3 0 1 1  ON 3
ud_4 0 1 1  ON 4
ud_5 0 1 1  ON 5
ud_6 0 1 1  ON 6
ud_7 0 1 1  ON 7
ud_8 0 1 1  ON 8
ud_9 0 1 1  ON 9

  Using BsplineBuilder for one-body jastrow with B-spline functions
  ... ParticleSet::addTable Reuse Table #1 ion0_e
  ... ParticleSet::addTable Reuse Table #1 ion0_e
 size = 10 parameters 
 cusp = 0
 rcut = 10
Parameter     Name      Value
eO_0 0 1 1  ON 0
eO_1 0 1 1  ON 1
eO_2 0 1 1  ON 2
eO_3 0 1 1  ON 3
eO_4 0 1 1  ON 4
eO_5 0 1 1  ON 5
eO_6 0 1 1  ON 6
eO_7 0 1 1  ON 7
eO_8 0 1 1  ON 8
eO_9 0 1 1  ON 9
 size = 10 parameters 
 cusp = 0
 rcut = 10
Parameter     Name      Value
eH_0 0 1 1  ON 0
eH_1 0 1 1  ON 1
eH_2 0 1 1  ON 2
eH_3 0 1 1  ON 3
eH_4 0 1 1  ON 4
eH_5 0 1 1  ON 5
eH_6 0 1 1  ON 6
eH_7 0 1 1  ON 7
eH_8 0 1 1  ON 8
eH_9 0 1 1  ON 9
  ... ParticleSet::addTable Reuse Table #1 ion0_e
Expected 26 parameters, but found 0 in PolynomialFunctor3D.
Parameter     Name      Value
uuO_0 0 1 1  ON 0
uuO_1 0 1 1  ON 1
uuO_2 0 1 1  ON 2
uuO_3 0 1 1  ON 3
uuO_4 0 1 1  ON 4
uuO_5 0 1 1  ON 5
uuO_6 0 1 1  ON 6
uuO_7 0 1 1  ON 7
uuO_8 0 1 1  ON 8
uuO_9 0 1 1  ON 9
uuO_10 0 1 1  ON 10
uuO_11 0 1 1  ON 11
uuO_12 0 1 1  ON 12
uuO_13 0 1 1  ON 13
uuO_14 0 1 1  ON 14
uuO_15 0 1 1  ON 15
uuO_16 0 1 1  ON 16
uuO_17 0 1 1  ON 17
uuO_18 0 1 1  ON 18
uuO_19 0 1 1  ON 19
uuO_20 0 1 1  ON 20
uuO_21 0 1 1  ON 21
uuO_22 0 1 1  ON 22
uuO_23 0 1 1  ON 23
uuO_24 0 1 1  ON 24
uuO_25 0 1 1  ON 25
Expected 26 parameters, but found 0 in PolynomialFunctor3D.
Parameter     Name      Value
udO_0 0 1 1  ON 0
udO_1 0 1 1  ON 1
udO_2 0 1 1  ON 2
udO_3 0 1 1  ON 3
udO_4 0 1 1  ON 4
udO_5 0 1 1  ON 5
udO_6 0 1 1  ON 6
udO_7 0 1 1  ON 7
udO_8 0 1 1  ON 8
udO_9 0 1 1  ON 9
udO_10 0 1 1  ON 10
udO_11 0 1 1  ON 11
udO_12 0 1 1  ON 12
udO_13 0 1 1  ON 13
udO_14 0 1 1  ON 14
udO_15 0 1 1  ON 15
udO_16 0 1 1  ON 16
udO_17 0 1 1  ON 17
udO_18 0 1 1  ON 18
udO_19 0 1 1  ON 19
udO_20 0 1 1  ON 20
udO_21 0 1 1  ON 21
udO_22 0 1 1  ON 22
udO_23 0 1 1  ON 23
udO_24 0 1 1  ON 24
udO_25 0 1 1  ON 25
Expected 26 parameters, but found 0 in PolynomialFunctor3D.
Parameter     Name      Value
uuH_0 0 1 1  ON 0
uuH_1 0 1 1  ON 1
uuH_2 0 1 1  ON 2
uuH_3 0 1 1  ON 3
uuH_4 0 1 1  ON 4
uuH_5 0 1 1  ON 5
uuH_6 0 1 1  ON 6
uuH_7 0 1 1  ON 7
uuH_8 0 1 1  ON 8
uuH_9 0 1 1  ON 9
uuH_10 0 1 1  ON 10
uuH_11 0 1 1  ON 11
uuH_12 0 1 1  ON 12
uuH_13 0 1 1  ON 13
uuH_14 0 1 1  ON 14
uuH_15 0 1 1  ON 15
uuH_16 0 1 1  ON 16
uuH_17 0 1 1  ON 17
uuH_18 0 1 1  ON 18
uuH_19 0 1 1  ON 19
uuH_20 0 1 1  ON 20
uuH_21 0 1 1  ON 21
uuH_22 0 1 1  ON 22
uuH_23 0 1 1  ON 23
uuH_24 0 1 1  ON 24
uuH_25 0 1 1  ON 25
Expected 26 parameters, but found 0 in PolynomialFunctor3D.
Parameter     Name      Value
udH_0 0 1 1  ON 0
udH_1 0 1 1  ON 1
udH_2 0 1 1  ON 2
udH_3 0 1 1  ON 3
udH_4 0 1 1  ON 4
udH_5 0 1 1  ON 5
udH_6 0 1 1  ON 6
udH_7 0 1 1  ON 7
udH_8 0 1 1  ON 8
udH_9 0 1 1  ON 9
udH_10 0 1 1  ON 10
udH_11 0 1 1  ON 11
udH_12 0 1 1  ON 12
udH_13 0 1 1  ON 13
udH_14 0 1 1  ON 14
udH_15 0 1 1  ON 15
udH_16 0 1 1  ON 16
udH_17 0 1 1  ON 17
udH_18 0 1 1  ON 18
udH_19 0 1 1  ON 19
udH_20 0 1 1  ON 20
udH_21 0 1 1  ON 21
udH_22 0 1 1  ON 22
udH_23 0 1 1  ON 23
udH_24 0 1 1  ON 24
udH_25 0 1 1  ON 25
  QMCHamiltonian::addOperator Kinetic to H, physical Hamiltonian 
  ... ParticleSet::addTable Reuse Table #0 e_e
  QMCHamiltonian::addOperator ElecElec to H, physical Hamiltonian 
QMCHamiltonian::addOperatorType added type coulomb named ElecElec

  ECPotential builder for pseudopotential 

  Adding pseudopotential for O
   Linear grid  ri=0 rf=10 npts = 10001
    ECPComponentBuilder::buildSemiLocalAndLocal 
    Assuming Hartree unit
   Number of angular momentum channels 2
   Maximum angular momentum channel 1
   Creating a Linear Grid Rmax=1.30534
  Using global grid with delta = 0.001
   Making L=1 a local potential with a radial cutoff of 9.998
  NonLocalECPComponent::resize_warrays 
    Non-local pseudopotential parameters
    Maximum angular mementum = 0
    Number of non-local channels = 1
       l(0)=0
    Cutoff radius = 1.306
    Spherical grids and weights: 
                        1                 0                 0       0.08333333333
                       -1   1.224646799e-16                 0       0.08333333333
             0.4472135955       0.894427191                 0       0.08333333333
            -0.4472135955      0.7236067977      0.5257311121       0.08333333333
             0.4472135955      0.2763932023      0.8506508084       0.08333333333
            -0.4472135955     -0.2763932023      0.8506508084       0.08333333333
             0.4472135955     -0.7236067977      0.5257311121       0.08333333333
            -0.4472135955      -0.894427191   1.095357397e-16       0.08333333333
             0.4472135955     -0.7236067977     -0.5257311121       0.08333333333
            -0.4472135955     -0.2763932023     -0.8506508084       0.08333333333
             0.4472135955      0.2763932023     -0.8506508084       0.08333333333
            -0.4472135955      0.7236067977     -0.5257311121       0.08333333333
    Maximum cutoff radius 1.306

  Adding pseudopotential for H
   Linear grid  ri=0 rf=10 npts = 10001
    ECPComponentBuilder::buildSemiLocalAndLocal 
    Assuming Hartree unit
    Only one vps is found. Set the local component=0
   Number of angular momentum channels 1
   Maximum angular momentum channel 0
   Creating a Linear Grid Rmax=1.16639
  Using global grid with delta = 0.001
   Making L=0 a local potential with a radial cutoff of 9.998
  ... ParticleSet::addTable Reuse Table #1 ion0_e
  QMCHamiltonian::addOperator LocalECP to H, physical Hamiltonian 
  ... ParticleSet::addTable Reuse Table #1 ion0_e
  ... ParticleSet::addTable Reuse Table #1 ion0_e

  Using NonLocalECP potential 
    Maximum grid on a sphere for NonLocalECPotential: 12
  QMCHamiltonian::addOperator NonLocalECP to H, physical Hamiltonian 
QMCHamiltonian::addOperatorType added type pseudo named ELEMENT-ECP
  Distance table for AA: source/target = ion0
    PBC=open Orthorhombic=NA
 using Cartesian coordinates with 
  ... ParticleSet::addTable Create Table #0 ion0_ion0
  QMCHamiltonian::addOperator IonIon to H, physical Hamiltonian 
QMCHamiltonian::addOperatorType added type coulomb named IonIon

  QMCHamiltonian::add2WalkerProperty added
    5 to P::PropertyList 
    0 to P::Collectables 
    starting Index of the observables in P::PropertyList = 9
  Hamiltonian disables VirtualMoves
<init source="ion0" target="e">
  ... ParticleSet::addTable Reuse Table #0 ion0_ion0
</init>
ParticleSetPool::randomize 
=========================================================
 Summary of QMC systems 
=========================================================
ParticleSetPool has: 

  ParticleSet e : 0 4 8 

    8

    u -6.3759010216e-01  4.7594812887e-02  3.3934585640e-01
    u -6.3576180474e-01 -3.2616853324e-03 -3.4603222954e-01
    u -2.0388207846e-01  6.6071096220e-01  2.1409142286e-01
    u  1.9672304210e-01 -1.6189574893e+00  4.3716351948e-01
    d -2.5458625694e-01 -6.1210777496e-01 -2.9060613285e-01
    d -9.9593228881e-02  6.2249439593e-01 -3.5570202506e-01
    d  3.7489261844e-02 -6.8291201791e-01 -2.3699735415e-01
    d  5.7083166078e-01  1.8329337095e+00  9.1707830901e-01

  ParticleSet ion0 : 0 1 3 

    3

    O  0.0000000000e+00  0.0000000000e+00  0.0000000000e+00
    H -0.0000000000e+00 -1.4308249289e+00  1.1078707576e+00
    H  0.0000000000e+00  1.4308249289e+00  1.1078707576e+00

  Hamiltonian h0
  Kinetic         Kinetic energy
  ElecElec        CoulombAA source/target e

  LocalECP        LocalECPotential: ion0
  NonLocalECP     NonLocalECPotential: ion0
  IonIon          CoulombAA source/target ion0

Loop execution max-interations = 10

=========================================================
  Start QMCFixedSampleLinearOptimize
  File Root jopt-h2o.s000 append = no 
=========================================================
  Skip QMCDriver::putQMCInfo 
  Resetting Properties of the walkers 1 x 14
  Adding 1 walkers to 0 existing sets
  Total number of walkers: 3.2000000000e+02
  Total weight: 3.2000000000e+02

=========================================================
  Start VMCSingleOMP
  File Root jopt-h2o.s000 append = no 
=========================================================
  Using the current 1 walkers.
  Total number of walkers: 3.2000000000e+02
  Total weight: 3.2000000000e+02
  Resetting Properties of the walkers 1 x 14

<vmc function="put">
  qmc_counter=0  my_counter=0
  time step      = 5.0000000000e-01
  blocks         = 100
  steps          = 2
  substeps       = 20
  current        = 0
  target samples = 5.1200000000e+04
  walkers/mpi    = 1

  stepsbetweensamples = 1
<parameter name="blocks" condition="int">100</parameter>
<parameter name="check_properties" condition="int">100</parameter>
<parameter name="checkproperties" condition="int">100</parameter>
<parameter name="current" condition="int">0</parameter>
<parameter name="dmcwalkersperthread" condition="real">1.6000000000e+02</parameter>
<parameter name="maxcpusecs" condition="real">3.6000000000e+05</parameter>
<parameter name="record_configs" condition="int">0</parameter>
<parameter name="record_walkers" condition="int">1</parameter>
<parameter name="recordconfigs" condition="int">0</parameter>
<parameter name="recordwalkers" condition="int">1</parameter>
<parameter name="rewind" condition="int">0</parameter>
<parameter name="samples" condition="real">5.1200000000e+04</parameter>
<parameter name="samplesperthread" condition="real">1.6000000000e+02</parameter>
<parameter name="steps" condition="int">2</parameter>
<parameter name="stepsbetweensamples" condition="int">1</parameter>
<parameter name="store_configs" condition="int">0</parameter>
<parameter name="storeconfigs" condition="int">0</parameter>
<parameter name="sub_steps" condition="int">20</parameter>
<parameter name="substeps" condition="int">20</parameter>
<parameter name="tau" condition="au">5.0000000000e-01</parameter>
<parameter name="time_step" condition="au">5.0000000000e-01</parameter>
<parameter name="timestep" condition="au">5.0000000000e-01</parameter>
<parameter name="use_drift" condition="string">yes</parameter>
<parameter name="usedrift" condition="string">yes</parameter>
<parameter name="walkers" condition="int">1</parameter>
<parameter name="warmup_steps" condition="int">25</parameter>
<parameter name="warmupsteps" condition="int">25</parameter>
  DumpConfig==false Nothing (configurations, state) will be saved.
  Walker Samples are dumped every 1 steps.
</vmc>
 Using QMCCostFunctionOMP::QMCCostFunctionOMP
<optimization-report>
<vmc stage="main" blocks="100">
  Initial partition of walkers 0 1 
  PbyP moves with drift, using VMCUpdatePbyPWithDriftFast

  Total Sample Size   =51200
  Walker distribution on root = 0 1 
  Anonymous Buffer size per walker 5587
MEMORY increase 0 MB VMCSingleOMP::resetRun
====================================================
  SimpleFixedNodeBranch::finalize after a VMC block
    QMC counter        = 0
    time step          = 0.5
    reference energy   = -17.1646
    reference variance = 0.857068
====================================================
  Execution time = 3.3147436480e+00
</vmc>
<opt stage="setup">
  <log>
   Reading configurations from h5FileRoot jopt-h2o.s000
  QMCCostFunctionOMP is created with 1
   Loading configuration from MCWalkerConfiguration::SampleStack 
    number of walkers before load 1
  Using Nonlocal PP in Opt: NonLocalECP
    number of walkers after load: 160 
Using buffers for temporary storage in QMCCostFunction.

Memory usage: 
Linear method (approx matrix usage: 4*N^2): 2.0160320000e+00 MB
Deriv,HDerivRecord:      9.6384000000e-01 MB
Buffer memory cost:     MB/walker       MB/total 
Orbitals only:           2.3040000000e-03      3.6864000000e-01
Orbitals + dervs:        1.1520000000e-02      1.8432000000e+00
Inverse:                 2.5600000000e-04      4.0960000000e-02
Determinants:            2.6928000000e-02      4.3084800000e+00
  VMC Eavg = -1.7146043288e+01
  VMC Evar = 9.8323472520e-01
  Total weights = 5.1200000000e+04
  Execution time = 5.0557758300e-01
  </log>
</opt>
<opt stage="main" walkers="51200">
  <log>
Iteration: 1/1
od_largest 7.0114565374e+07
  stabilityBase -6.0000000000e+00
  stabilizerScale 2.0000000000e+00
  Using XS:-6.0000000000e+00 0 0
ERROR CostFunction-> Number of Effective Walkers is too small 1.7493767924e+00 NumWalkersEff/NumSamples 3.4167515477e-05
ERROR CostFunction-> Number of Effective Walkers is too small 1.0000038027e+00 NumWalkersEff/NumSamples 1.9531324271e-05
ERROR CostFunction-> Number of Effective Walkers is too small 1.0000000000e+00 NumWalkersEff/NumSamples 1.9531250000e-05
ERROR CostFunction-> Number of Effective Walkers is too small 1.0000000000e+00 NumWalkersEff/NumSamples 1.9531250000e-05
ERROR CostFunction-> Number of Effective Walkers is too small 1.0000000000e+00 NumWalkersEff/NumSamples 1.9531250000e-05
ERROR CostFunction-> Number of Effective Walkers is too small 1.0000000000e+00 NumWalkersEff/NumSamples 1.9531250000e-05
  Failed Step. Largest LM parameter change:2.3898804172e+02
ERROR   Using XS:-4.0000000000e+00 1 0
ERROR CostFunction-> Number of Effective Walkers is too small 1.5602244369e+00 NumWalkersEff/NumSamples 3.0473133533e-05
ERROR CostFunction-> Number of Effective Walkers is too small 1.0000031735e+00 NumWalkersEff/NumSamples 1.9531311982e-05
ERROR CostFunction-> Number of Effective Walkers is too small 1.0000000000e+00 NumWalkersEff/NumSamples 1.9531250000e-05
ERROR CostFunction-> Number of Effective Walkers is too small 1.0000000000e+00 NumWalkersEff/NumSamples 1.9531250000e-05
ERROR CostFunction-> Number of Effective Walkers is too small 1.0000000000e+00 NumWalkersEff/NumSamples 1.9531250000e-05
ERROR CostFunction-> Number of Effective Walkers is too small 1.0000000000e+00 NumWalkersEff/NumSamples 1.9531250000e-05
  Failed Step. Largest LM parameter change:2.4208109470e+02
ERROR   Using XS:-2.0000000000e+00 2 0
ERROR CostFunction-> Number of Effective Walkers is too small 1.0534187440e+00 NumWalkersEff/NumSamples 2.0574584843e-05
ERROR CostFunction-> Number of Effective Walkers is too small 1.0000006287e+00 NumWalkersEff/NumSamples 1.9531262279e-05
ERROR CostFunction-> Number of Effective Walkers is too small 1.0000000000e+00 NumWalkersEff/NumSamples 1.9531250000e-05
ERROR CostFunction-> Number of Effective Walkers is too small 1.0000000000e+00 NumWalkersEff/NumSamples 1.9531250000e-05
ERROR CostFunction-> Number of Effective Walkers is too small 1.0000000000e+00 NumWalkersEff/NumSamples 1.9531250000e-05
ERROR CostFunction-> Number of Effective Walkers is too small 1.0000000000e+00 NumWalkersEff/NumSamples 1.9531250000e-05
  Failed Step. Largest LM parameter change:2.7014211056e+02
ERROR   Using XS:0.0000000000e+00 3 0
ERROR CostFunction-> Number of Effective Walkers is too small 1.0000036453e+00 NumWalkersEff/NumSamples 1.9531321198e-05
ERROR CostFunction-> Number of Effective Walkers is too small 1.5541600803e+00 NumWalkersEff/NumSamples 3.0354689069e-05
ERROR CostFunction-> Number of Effective Walkers is too small 1.0000000000e+00 NumWalkersEff/NumSamples 1.9531250000e-05
ERROR CostFunction-> Number of Effective Walkers is too small 1.0000000000e+00 NumWalkersEff/NumSamples 1.9531250000e-05
ERROR CostFunction-> Number of Effective Walkers is too small 1.0000000000e+00 NumWalkersEff/NumSamples 1.9531250000e-05
ERROR CostFunction-> Number of Effective Walkers is too small 1.0000000000e+00 NumWalkersEff/NumSamples 1.9531250000e-05
  Failed Step. Largest LM parameter change:2.4266866030e+02
ERROR   Using XS:2.0000000000e+00 4 0
  Good Step. Largest LM parameter change:1.5755650551e+00
 OldCost: -1.6239579387e+01 NewCost: -1.6373195938e+01 Delta Cost:-1.3361655110e-01
      Current ene:     -1.7246825643e+01
      Current var:     2.2576844986e-01
      Current ene_urw:     -1.7226728874e+01
      Current var_urw: 7.6553217633e-01
Setting new Parameters
ERROR   Execution time = 1.0662961465e+01
  </log>
  <optVariables href="jopt-h2o.s000.opt.xml">
CSFcoeff_1 -4.7073488752e-02 3 1  ON 0
CSFcoeff_2 3.9584634092e-02 3 1  ON 1
CSFcoeff_3 -2.8088904640e-02 3 1  ON 2
CSFcoeff_4 2.5693481320e-02 3 1  ON 3
CSFcoeff_5 -2.6834988532e-02 3 1  ON 4
CSFcoeff_6 -2.9963791041e-02 3 1  ON 5
CSFcoeff_7 2.0387149508e-02 3 1  ON 6
CSFcoeff_8 2.1901236388e-02 3 1  ON 7
CSFcoeff_9 -2.6436602724e-02 3 1  ON 8
CSFcoeff_10 -2.4309423812e-02 3 1  ON 9
CSFcoeff_11 -1.7633658184e-02 3 1  ON 10
CSFcoeff_12 1.9335667203e-02 3 1  ON 11
CSFcoeff_13 2.8134044783e-02 3 1  ON 12
CSFcoeff_14 -2.2206162914e-02 3 1  ON 13
CSFcoeff_15 -2.5554798861e-02 3 1  ON 14
CSFcoeff_16 -2.2473228884e-02 3 1  ON 15
CSFcoeff_17 2.4167080742e-02 3 1  ON 16
CSFcoeff_18 -2.2250834196e-02 3 1  ON 17
CSFcoeff_19 -2.3328762244e-02 3 1  ON 18
CSFcoeff_20 -1.6520926755e-02 3 1  ON 19
CSFcoeff_21 2.1823738969e-02 3 1  ON 20
CSFcoeff_22 -2.2695430756e-02 3 1  ON 21
CSFcoeff_23 1.7823574354e-02 3 1  ON 22
CSFcoeff_24 -1.9978161380e-02 3 1  ON 23
CSFcoeff_25 1.6186687525e-02 3 1  ON 24
CSFcoeff_26 7.5155107974e-03 3 1  ON 25
CSFcoeff_27 -1.4138717556e-02 3 1  ON 26
CSFcoeff_28 1.3150334541e-02 3 1  ON 27
CSFcoeff_29 -2.0925231302e-02 3 1  ON 28
CSFcoeff_30 1.6137025839e-02 3 1  ON 29
CSFcoeff_31 -1.6925421075e-02 3 1  ON 30
CSFcoeff_32 -1.2865315283e-02 3 1  ON 31
CSFcoeff_33 1.2410344550e-02 3 1  ON 32
CSFcoeff_34 -1.1691074163e-02 3 1  ON 33
CSFcoeff_35 1.6359758079e-02 3 1  ON 34
CSFcoeff_36 -1.1469673457e-02 3 1  ON 35
CSFcoeff_37 1.8341957884e-02 3 1  ON 36
CSFcoeff_38 -1.0562811642e-02 3 1  ON 37
CSFcoeff_39 1.2837764354e-02 3 1  ON 38
CSFcoeff_40 -1.3552535360e-02 3 1  ON 39
CSFcoeff_41 7.0963545349e-03 3 1  ON 40
CSFcoeff_42 -4.8396475056e-03 3 1  ON 41
CSFcoeff_43 1.4403770268e-02 3 1  ON 42
CSFcoeff_44 -1.1743727986e-02 3 1  ON 43
CSFcoeff_45 -1.3529444261e-02 3 1  ON 44
CSFcoeff_46 -8.1654118053e-03 3 1  ON 45
CSFcoeff_47 1.0286201373e-02 3 1  ON 46
CSFcoeff_48 -1.4890579938e-02 3 1  ON 47
CSFcoeff_49 8.4721585823e-03 3 1  ON 48
CSFcoeff_50 -8.5432107546e-03 3 1  ON 49
CSFcoeff_51 -1.0984733416e-02 3 1  ON 50
CSFcoeff_52 -7.0801497548e-03 3 1  ON 51
CSFcoeff_53 -6.0927697440e-03 3 1  ON 52
CSFcoeff_54 -1.0269266051e-02 3 1  ON 53
CSFcoeff_55 9.0088782453e-03 3 1  ON 54
CSFcoeff_56 6.7666722951e-03 3 1  ON 55
CSFcoeff_57 -8.1101956283e-03 3 1  ON 56
CSFcoeff_58 -6.9945761825e-03 3 1  ON 57
CSFcoeff_59 8.5166247714e-03 3 1  ON 58
CSFcoeff_60 -6.5512827412e-03 3 1  ON 59
CSFcoeff_61 1.0220072243e-02 3 1  ON 60
CSFcoeff_62 -6.7337583131e-03 3 1  ON 61
CSFcoeff_63 1.0350651611e-02 3 1  ON 62
CSFcoeff_64 9.3368476890e-03 3 1  ON 63
CSFcoeff_65 -5.9241006691e-03 3 1  ON 64
CSFcoeff_66 -8.0079805951e-03 3 1  ON 65
CSFcoeff_67 7.3739155628e-03 3 1  ON 66
CSFcoeff_68 -7.5014992759e-03 3 1  ON 67
CSFcoeff_69 -8.5017646366e-03 3 1  ON 68
CSFcoeff_70 -7.9039150667e-03 3 1  ON 69
CSFcoeff_71 3.3276748550e-03 3 1  ON 70
CSFcoeff_72 -6.3699609712e-03 3 1  ON 71
CSFcoeff_73 -4.6755789921e-03 3 1  ON 72
CSFcoeff_74 7.8820266484e-03 3 1  ON 73
CSFcoeff_75 -5.3851563545e-03 3 1  ON 74
CSFcoeff_76 -5.5501363727e-03 3 1  ON 75
CSFcoeff_77 6.9101780901e-03 3 1  ON 76
CSFcoeff_78 9.3203947747e-03 3 1  ON 77
CSFcoeff_79 8.4344776933e-03 3 1  ON 78
CSFcoeff_80 -6.2915266536e-03 3 1  ON 79
CSFcoeff_81 -7.8228151352e-03 3 1  ON 80
CSFcoeff_82 -5.1169710151e-03 3 1  ON 81
CSFcoeff_83 9.4674015464e-03 3 1  ON 82
CSFcoeff_84 4.3876141609e-03 3 1  ON 83
CSFcoeff_85 9.5335041859e-03 3 1  ON 84
CSFcoeff_86 5.1195812469e-03 3 1  ON 85
CSFcoeff_87 6.6543576133e-03 3 1  ON 86
CSFcoeff_88 -4.0534139427e-03 3 1  ON 87
CSFcoeff_89 7.9100428951e-03 3 1  ON 88
CSFcoeff_90 -3.7793188290e-03 3 1  ON 89
CSFcoeff_91 6.5166500305e-03 3 1  ON 90
CSFcoeff_92 6.2282044011e-03 3 1  ON 91
CSFcoeff_93 5.4485428071e-03 3 1  ON 92
CSFcoeff_94 4.4835861674e-03 3 1  ON 93
CSFcoeff_95 -6.6251300432e-03 3 1  ON 94
CSFcoeff_96 -5.0097588243e-03 3 1  ON 95
CSFcoeff_97 2.6315966986e-03 3 1  ON 96
CSFcoeff_98 -2.5953650068e-03 3 1  ON 97
CSFcoeff_99 7.6952982262e-03 3 1  ON 98
CSFcoeff_100 5.7565061933e-03 3 1  ON 99
CSFcoeff_101 -5.9199238346e-03 3 1  ON 100
CSFcoeff_102 3.4297760680e-03 3 1  ON 101
CSFcoeff_103 6.8845925630e-03 3 1  ON 102
CSFcoeff_104 -4.9360218821e-03 3 1  ON 103
CSFcoeff_105 -5.9813523793e-03 3 1  ON 104
CSFcoeff_106 -3.8848489849e-03 3 1  ON 105
CSFcoeff_107 6.9338859448e-03 3 1  ON 106
uu_0 3.3411201691e-01 1 1  ON 107
uu_1 1.7547732350e-01 1 1  ON 108
uu_2 1.2915207966e-01 1 1  ON 109
uu_3 1.1804204962e-01 1 1  ON 110
uu_4 1.0897481626e-01 1 1  ON 111
uu_5 9.1545509818e-02 1 1  ON 112
uu_6 7.7886853969e-02 1 1  ON 113
uu_7 8.2081232547e-02 1 1  ON 114
uu_8 6.3007244691e-02 1 1  ON 115
uu_9 6.0014935204e-02 1 1  ON 116
ud_0 5.1086940626e-01 1 1  ON 117
ud_1 2.2024496880e-01 1 1  ON 118
ud_2 1.4175683464e-01 1 1  ON 119
ud_3 1.1135613011e-01 1 1  ON 120
ud_4 9.7889169179e-02 1 1  ON 121
ud_5 8.9415450926e-02 1 1  ON 122
ud_6 8.2356669845e-02 1 1  ON 123
ud_7 6.3426315424e-02 1 1  ON 124
ud_8 6.5460786652e-02 1 1  ON 125
ud_9 6.2335993734e-02 1 1  ON 126
eO_0 -1.5755650551e+00 1 1  ON 127
eO_1 -1.3981996043e+00 1 1  ON 128
eO_2 -1.0143877186e+00 1 1  ON 129
eO_3 -7.1744412123e-01 1 1  ON 130
eO_4 -5.7323982436e-01 1 1  ON 131
eO_5 -4.4669244162e-01 1 1  ON 132
eO_6 -3.8600686506e-01 1 1  ON 133
eO_7 -4.0004120495e-01 1 1  ON 134
eO_8 -4.3986550814e-01 1 1  ON 135
eO_9 -4.4138147797e-01 1 1  ON 136
eH_0 -3.5220692339e-01 1 1  ON 137
eH_1 -2.7438285421e-01 1 1  ON 138
eH_2 -2.3912926949e-01 1 1  ON 139
eH_3 -1.7393871288e-01 1 1  ON 140
eH_4 -1.0596217430e-01 1 1  ON 141
eH_5 -7.3375541278e-02 1 1  ON 142
eH_6 -8.8238638496e-02 1 1  ON 143
eH_7 -6.8384332472e-02 1 1  ON 144
eH_8 -7.5083245251e-02 1 1  ON 145
eH_9 8.8498493328e-02 1 1  ON 146
uuO_0 -6.9532350207e-07 1 1  ON 147
uuO_1 -5.7821920124e-06 1 1  ON 148
uuO_2 -4.0101531883e-08 1 1  ON 149
uuO_3 3.7814527232e-06 1 1  ON 150
uuO_4 4.6077136887e-07 1 1  ON 151
uuO_5 2.9787414075e-06 1 1  ON 152
uuO_6 -1.5495404790e-05 1 1  ON 153
uuO_7 2.0330243628e-05 1 1  ON 154
uuO_8 1.7741877426e-06 1 1  ON 155
uuO_9 9.9957292275e-06 1 1  ON 156
uuO_10 3.2644549120e-06 1 1  ON 157
uuO_11 -1.4819296568e-05 1 1  ON 158
uuO_12 9.9778401509e-07 1 1  ON 159
uuO_13 -1.1703553296e-05 1 1  ON 160
uuO_14 -2.5055332646e-07 1 1  ON 161
uuO_15 -3.5302108819e-08 1 1  ON 162
uuO_16 1.9679423022e-06 1 1  ON 163
uuO_17 -1.8181750726e-05 1 1  ON 164
uuO_18 1.7189461215e-05 1 1  ON 165
uuO_19 -2.1895892676e-06 1 1  ON 166
uuO_20 5.1134112758e-06 1 1  ON 167
uuO_21 -2.5751381885e-06 1 1  ON 168
uuO_22 4.2323419578e-07 1 1  ON 169
uuO_23 -1.1527324007e-06 1 1  ON 170
uuO_24 6.0600042147e-07 1 1  ON 171
uuO_25 -1.0824557915e-07 1 1  ON 172
udO_0 9.8322350889e-07 1 1  ON 173
udO_1 1.9112812488e-05 1 1  ON 174
udO_2 1.4071322059e-05 1 1  ON 175
udO_3 -1.1191316892e-05 1 1  ON 176
udO_4 -4.6056630509e-06 1 1  ON 177
udO_5 -1.1417952288e-06 1 1  ON 178
udO_6 3.1745033293e-05 1 1  ON 179
udO_7 -8.1504595770e-06 1 1  ON 180
udO_8 1.8677952852e-05 1 1  ON 181
udO_9 -2.0563760786e-05 1 1  ON 182
udO_10 -7.5988144183e-06 1 1  ON 183
udO_11 -7.8764300576e-06 1 1  ON 184
udO_12 -5.6352745001e-06 1 1  ON 185
udO_13 1.1667841769e-05 1 1  ON 186
udO_14 3.6466630239e-06 1 1  ON 187
udO_15 2.1076432557e-07 1 1  ON 188
udO_16 3.3482865604e-05 1 1  ON 189
udO_17 6.8157135398e-06 1 1  ON 190
udO_18 9.3353989010e-07 1 1  ON 191
udO_19 2.5724231576e-06 1 1  ON 192
udO_20 -1.2538354934e-05 1 1  ON 193
udO_21 3.6741749098e-07 1 1  ON 194
udO_22 -3.7050326967e-07 1 1  ON 195
udO_23 4.1509868945e-06 1 1  ON 196
udO_24 -5.5037372873e-07 1 1  ON 197
udO_25 1.2288039280e-07 1 1  ON 198
uuH_0 -3.5775584228e-06 1 1  ON 199
uuH_1 2.7151887370e-05 1 1  ON 200
uuH_2 2.0942543454e-05 1 1  ON 201
uuH_3 -4.3419363739e-06 1 1  ON 202
uuH_4 -3.7244638860e-06 1 1  ON 203
uuH_5 -1.6732374315e-06 1 1  ON 204
uuH_6 5.4254582740e-05 1 1  ON 205
uuH_7 -1.8888438127e-05 1 1  ON 206
uuH_8 1.3875963782e-05 1 1  ON 207
uuH_9 -3.3424087727e-05 1 1  ON 208
uuH_10 -2.0031709219e-06 1 1  ON 209
uuH_11 -9.5618575059e-06 1 1  ON 210
uuH_12 -3.1073541153e-06 1 1  ON 211
uuH_13 6.8839828600e-06 1 1  ON 212
uuH_14 3.5341384625e-07 1 1  ON 213
uuH_15 2.7640618427e-07 1 1  ON 214
uuH_16 4.4180236273e-05 1 1  ON 215
uuH_17 -1.2426294001e-05 1 1  ON 216
uuH_18 1.0766474925e-05 1 1  ON 217
uuH_19 4.6211155732e-07 1 1  ON 218
uuH_20 -1.0507834123e-05 1 1  ON 219
uuH_21 -7.7951307666e-07 1 1  ON 220
uuH_22 -6.2681579284e-08 1 1  ON 221
uuH_23 2.9944817120e-06 1 1  ON 222
uuH_24 -9.2493296160e-08 1 1  ON 223
uuH_25 2.7580381779e-08 1 1  ON 224
udH_0 -1.4569635713e-06 1 1  ON 225
udH_1 -7.3483680721e-06 1 1  ON 226
udH_2 6.3192116106e-06 1 1  ON 227
udH_3 1.2317318380e-06 1 1  ON 228
udH_4 -2.0454549277e-06 1 1  ON 229
udH_5 1.2417366045e-06 1 1  ON 230
udH_6 -8.2230587442e-06 1 1  ON 231
udH_7 1.0854716737e-05 1 1  ON 232
udH_8 1.0365817662e-05 1 1  ON 233
udH_9 5.2448755034e-06 1 1  ON 234
udH_10 1.2275809466e-06 1 1  ON 235
udH_11 -1.3716983820e-05 1 1  ON 236
udH_12 -2.6145391061e-06 1 1  ON 237
udH_13 -1.7006342284e-07 1 1  ON 238
udH_14 2.6624800063e-06 1 1  ON 239
udH_15 1.6857603360e-08 1 1  ON 240
udH_16 -4.7171527184e-07 1 1  ON 241
udH_17 -4.0924849157e-06 1 1  ON 242
udH_18 1.0943378216e-05 1 1  ON 243
udH_19 1.4145221081e-07 1 1  ON 244
udH_20 -7.0092821698e-07 1 1  ON 245
udH_21 -1.8608211102e-06 1 1  ON 246
udH_22 1.3789082216e-07 1 1  ON 247
udH_23 4.7612051446e-07 1 1  ON 248
udH_24 2.9467215450e-07 1 1  ON 249
udH_25 -4.1740456316e-08 1 1  ON 250
  </optVariables>
   Restore the number of walkers to 1, removing 159 walkers.
</opt>
</optimization-report>
  QMC Execution time = 1.0680979088e+01 secs 
  Reusing QMCFixedSampleLinearOptimize
 Using QMCCostFunctionOMP::QMCCostFunctionOMP

=========================================================
  Start QMCFixedSampleLinearOptimize
  File Root jopt-h2o.s001 append = no 
=========================================================
  Skip QMCDriver::putQMCInfo 
  Resetting Properties of the walkers 1 x 14

=========================================================
  Start VMCSingleOMP
  File Root jopt-h2o.s001 append = no 
=========================================================
Using existing walkers 
  Resetting Properties of the walkers 1 x 14

<vmc function="put">
  qmc_counter=1  my_counter=1
  time step      = 5.0000000000e-01
  blocks         = 100
  steps          = 2
  substeps       = 20
  current        = 0
  target samples = 5.1200000000e+04
  walkers/mpi    = 1

  stepsbetweensamples = 1
<parameter name="blocks" condition="int">100</parameter>
<parameter name="check_properties" condition="int">100</parameter>
<parameter name="checkproperties" condition="int">100</parameter>
<parameter name="current" condition="int">0</parameter>
<parameter name="dmcwalkersperthread" condition="real">1.6000000000e+02</parameter>
<parameter name="maxcpusecs" condition="real">3.6000000000e+05</parameter>
<parameter name="record_configs" condition="int">0</parameter>
<parameter name="record_walkers" condition="int">1</parameter>
<parameter name="recordconfigs" condition="int">0</parameter>
<parameter name="recordwalkers" condition="int">1</parameter>
<parameter name="rewind" condition="int">0</parameter>
<parameter name="samples" condition="real">5.1200000000e+04</parameter>
<parameter name="samplesperthread" condition="real">1.6000000000e+02</parameter>
<parameter name="steps" condition="int">2</parameter>
<parameter name="stepsbetweensamples" condition="int">1</parameter>
<parameter name="store_configs" condition="int">0</parameter>
<parameter name="storeconfigs" condition="int">0</parameter>
<parameter name="sub_steps" condition="int">20</parameter>
<parameter name="substeps" condition="int">20</parameter>
<parameter name="tau" condition="au">5.0000000000e-01</parameter>
<parameter name="time_step" condition="au">5.0000000000e-01</parameter>
<parameter name="timestep" condition="au">5.0000000000e-01</parameter>
<parameter name="use_drift" condition="string">yes</parameter>
<parameter name="usedrift" condition="string">yes</parameter>
<parameter name="walkers" condition="int">1</parameter>
<parameter name="warmup_steps" condition="int">25</parameter>
<parameter name="warmupsteps" condition="int">25</parameter>
  DumpConfig==false Nothing (configurations, state) will be saved.
  Walker Samples are dumped every 1 steps.
</vmc>
  EstimatorManager::add replace LocalEnergy estimator.
  EstimatorManager::add replace LocalEnergy estimator.
<optimization-report>
<vmc stage="main" blocks="100">
  Cannot make clones again. Use existing 1 clones
  Initial partition of walkers 0 1 
  Total Sample Size   =51200
  Walker distribution on root = 0 1 
====================================================
  SimpleFixedNodeBranch::finalize after a VMC block
    QMC counter        = 1
    time step          = 0.5
    reference energy   = -17.2468
    reference variance = 0.453979
====================================================
  Execution time = 3.3186131060e+00
</vmc>
<opt stage="setup">
  <log>
   Reading configurations from h5FileRoot jopt-h2o.s001
  QMCCostFunctionOMP is created with 1
   Loading configuration from MCWalkerConfiguration::SampleStack 
    number of walkers before load 1
  Using Nonlocal PP in Opt: NonLocalECP
    number of walkers after load: 160 
Using buffers for temporary storage in QMCCostFunction.

Memory usage: 
Linear method (approx matrix usage: 4*N^2): 2.0160320000e+00 MB
Deriv,HDerivRecord:      9.6384000000e-01 MB
Buffer memory cost:     MB/walker       MB/total 
Orbitals only:           2.3040000000e-03      3.6864000000e-01
Orbitals + dervs:        1.1520000000e-02      1.8432000000e+00
Inverse:                 2.5600000000e-04      4.0960000000e-02
Determinants:            2.6928000000e-02      4.3084800000e+00
  VMC Eavg = -1.5631829858e+01
  VMC Evar = 1.5483089844e+01
  Total weights = 5.1200000000e+04
  Execution time = 5.0616864799e-01
  </log>
</opt>
<opt stage="main" walkers="51200">
  <log>
Iteration: 1/1
od_largest 3.1957657819e+08
  stabilityBase -6.0000000000e+00
  stabilizerScale 2.0000000000e+00
  Using XS:-6.0000000000e+00 0 0
ERROR CostFunction-> Number of Effective Walkers is too small 5.3836061517e+01 NumWalkersEff/NumSamples 1.0514855765e-03
ERROR CostFunction-> Number of Effective Walkers is too small 1.0002655436e+00 NumWalkersEff/NumSamples 1.9536436399e-05
ERROR CostFunction-> Number of Effective Walkers is too small 1.0000000000e+00 NumWalkersEff/NumSamples 1.9531250000e-05
ERROR CostFunction-> Number of Effective Walkers is too small 1.0000000000e+00 NumWalkersEff/NumSamples 1.9531250000e-05
ERROR CostFunction-> Number of Effective Walkers is too small 1.0000000000e+00 NumWalkersEff/NumSamples 1.9531250000e-05
ERROR CostFunction-> Number of Effective Walkers is too small 1.0000000000e+00 NumWalkersEff/NumSamples 1.9531250000e-05
  Failed Step. Largest LM parameter change:5.5940802993e+02
ERROR   Using XS:-4.0000000000e+00 1 0
ERROR CostFunction-> Number of Effective Walkers is too small 5.3649486774e+01 NumWalkersEff/NumSamples 1.0478415385e-03
ERROR CostFunction-> Number of Effective Walkers is too small 1.0002594370e+00 NumWalkersEff/NumSamples 1.9536317128e-05
ERROR CostFunction-> Number of Effective Walkers is too small 1.0000000000e+00 NumWalkersEff/NumSamples 1.9531250000e-05
ERROR CostFunction-> Number of Effective Walkers is too small 1.0000000000e+00 NumWalkersEff/NumSamples 1.9531250000e-05
ERROR CostFunction-> Number of Effective Walkers is too small 1.0000000000e+00 NumWalkersEff/NumSamples 1.9531250000e-05
ERROR CostFunction-> Number of Effective Walkers is too small 1.0000000000e+00 NumWalkersEff/NumSamples 1.9531250000e-05
  Failed Step. Largest LM parameter change:5.6075559897e+02
ERROR   Using XS:-2.0000000000e+00 2 0
ERROR CostFunction-> Number of Effective Walkers is too small 5.2077032821e+01 NumWalkersEff/NumSamples 1.0171295473e-03
ERROR CostFunction-> Number of Effective Walkers is too small 1.0002188602e+00 NumWalkersEff/NumSamples 1.9535524614e-05
ERROR CostFunction-> Number of Effective Walkers is too small 1.0000000000e+00 NumWalkersEff/NumSamples 1.9531250000e-05
ERROR CostFunction-> Number of Effective Walkers is too small 1.0000000000e+00 NumWalkersEff/NumSamples 1.9531250000e-05
ERROR CostFunction-> Number of Effective Walkers is too small 1.0000000000e+00 NumWalkersEff/NumSamples 1.9531250000e-05
ERROR CostFunction-> Number of Effective Walkers is too small 1.0000000000e+00 NumWalkersEff/NumSamples 1.9531250000e-05
  Failed Step. Largest LM parameter change:5.7165019500e+02
ERROR   Using XS:0.0000000000e+00 3 0
ERROR CostFunction-> Number of Effective Walkers is too small 1.0005294835e+00 NumWalkersEff/NumSamples 1.9541591475e-05
ERROR CostFunction-> Number of Effective Walkers is too small 2.5811129364e+01 NumWalkersEff/NumSamples 5.0412362039e-04
ERROR CostFunction-> Number of Effective Walkers is too small 1.0000000002e+00 NumWalkersEff/NumSamples 1.9531250003e-05
ERROR CostFunction-> Number of Effective Walkers is too small 1.0000000000e+00 NumWalkersEff/NumSamples 1.9531250000e-05
ERROR CostFunction-> Number of Effective Walkers is too small 1.0000000000e+00 NumWalkersEff/NumSamples 1.9531250000e-05
ERROR CostFunction-> Number of Effective Walkers is too small 1.0000000000e+00 NumWalkersEff/NumSamples 1.9531250000e-05
  Failed Step. Largest LM parameter change:2.2365914651e+02
ERROR   Using XS:2.0000000000e+00 4 0
  Good Step. Largest LM parameter change:6.3417640364e+00
 OldCost: -1.6373708702e+01 NewCost: -1.6385057525e+01 Delta Cost:-1.1348822979e-02
      Current ene:     -1.7256337364e+01
      Current var:     1.6925942007e-01
      Current ene_urw:     -1.7255822774e+01
      Current var_urw: 1.8582913773e-01
Setting new Parameters
ERROR   Execution time = 1.0740436786e+01
  </log>
  <optVariables href="jopt-h2o.s001.opt.xml">
CSFcoeff_1 -3.3275464348e-02 3 1  ON 0
CSFcoeff_2 3.7463712272e-02 3 1  ON 1
CSFcoeff_3 -1.5531152537e-02 3 1  ON 2
CSFcoeff_4 2.2013542696e-02 3 1  ON 3
CSFcoeff_5 -2.0230375606e-02 3 1  ON 4
CSFcoeff_6 -1.9802291699e-02 3 1  ON 5
CSFcoeff_7 8.3463067925e-03 3 1  ON 6
CSFcoeff_8 2.2860308061e-02 3 1  ON 7
CSFcoeff_9 -1.6884207820e-02 3 1  ON 8
CSFcoeff_10 -1.8940998314e-02 3 1  ON 9
CSFcoeff_11 -1.4097223946e-02 3 1  ON 10
CSFcoeff_12 1.4789724506e-02 3 1  ON 11
CSFcoeff_13 3.2442822785e-02 3 1  ON 12
CSFcoeff_14 -1.8060964418e-02 3 1  ON 13
CSFcoeff_15 -1.7202701152e-02 3 1  ON 14
CSFcoeff_16 -1.5642949715e-02 3 1  ON 15
CSFcoeff_17 1.4407922211e-02 3 1  ON 16
CSFcoeff_18 -1.4612242345e-02 3 1  ON 17
CSFcoeff_19 -1.8246973701e-02 3 1  ON 18
CSFcoeff_20 -1.1960994810e-02 3 1  ON 19
CSFcoeff_21 1.6947651220e-02 3 1  ON 20
CSFcoeff_22 -1.9788741381e-02 3 1  ON 21
CSFcoeff_23 1.1042727040e-02 3 1  ON 22
CSFcoeff_24 -1.6812280973e-02 3 1  ON 23
CSFcoeff_25 6.7757936606e-03 3 1  ON 24
CSFcoeff_26 9.4988450799e-04 3 1  ON 25
CSFcoeff_27 -1.2110747646e-02 3 1  ON 26
CSFcoeff_28 3.7373179508e-03 3 1  ON 27
CSFcoeff_29 -1.2909970006e-02 3 1  ON 28
CSFcoeff_30 1.1853202325e-02 3 1  ON 29
CSFcoeff_31 -1.2831068927e-02 3 1  ON 30
CSFcoeff_32 -5.2253867484e-03 3 1  ON 31
CSFcoeff_33 7.2703419137e-03 3 1  ON 32
CSFcoeff_34 -9.9138765727e-03 3 1  ON 33
CSFcoeff_35 1.0830831108e-02 3 1  ON 34
CSFcoeff_36 -6.1925273882e-03 3 1  ON 35
CSFcoeff_37 1.7134330784e-02 3 1  ON 36
CSFcoeff_38 -9.1591325555e-03 3 1  ON 37
CSFcoeff_39 9.0989745104e-03 3 1  ON 38
CSFcoeff_40 -1.0334615892e-02 3 1  ON 39
CSFcoeff_41 8.0702835250e-03 3 1  ON 40
CSFcoeff_42 -6.3063956323e-04 3 1  ON 41
CSFcoeff_43 1.1567451128e-02 3 1  ON 42
CSFcoeff_44 -1.1884797763e-02 3 1  ON 43
CSFcoeff_45 -1.2550419250e-02 3 1  ON 44
CSFcoeff_46 -2.6331095425e-03 3 1  ON 45
CSFcoeff_47 1.3637534908e-02 3 1  ON 46
CSFcoeff_48 -7.4148723705e-03 3 1  ON 47
CSFcoeff_49 9.0565929544e-03 3 1  ON 48
CSFcoeff_50 -5.0098815412e-03 3 1  ON 49
CSFcoeff_51 8.5303020443e-04 3 1  ON 50
CSFcoeff_52 -1.8134235105e-03 3 1  ON 51
CSFcoeff_53 -5.1035808546e-03 3 1  ON 52
CSFcoeff_54 -6.3567922491e-03 3 1  ON 53
CSFcoeff_55 -2.8849995361e-03 3 1  ON 54
CSFcoeff_56 2.6912340706e-03 3 1  ON 55
CSFcoeff_57 -1.1099390362e-02 3 1  ON 56
CSFcoeff_58 -2.3634989160e-03 3 1  ON 57
CSFcoeff_59 2.2123527918e-03 3 1  ON 58
CSFcoeff_60 -5.8440682005e-03 3 1  ON 59
CSFcoeff_61 3.5863693713e-03 3 1  ON 60
CSFcoeff_62 -3.3637165498e-03 3 1  ON 61
CSFcoeff_63 1.8122674422e-03 3 1  ON 62
CSFcoeff_64 9.8663904949e-03 3 1  ON 63
CSFcoeff_65 -6.4958646991e-03 3 1  ON 64
CSFcoeff_66 -9.6334442838e-03 3 1  ON 65
CSFcoeff_67 4.1426454778e-03 3 1  ON 66
CSFcoeff_68 -3.8850424112e-03 3 1  ON 67
CSFcoeff_69 -9.8212755044e-03 3 1  ON 68
CSFcoeff_70 -1.0528965913e-03 3 1  ON 69
CSFcoeff_71 1.6105993688e-03 3 1  ON 70
CSFcoeff_72 -8.2029480212e-03 3 1  ON 71
CSFcoeff_73 -2.2255233185e-03 3 1  ON 72
CSFcoeff_74 5.0928379623e-03 3 1  ON 73
CSFcoeff_75 1.1798971264e-03 3 1  ON 74
CSFcoeff_76 -5.8108898216e-03 3 1  ON 75
CSFcoeff_77 2.1070668826e-03 3 1  ON 76
CSFcoeff_78 9.9074180270e-03 3 1  ON 77
CSFcoeff_79 5.4639321504e-03 3 1  ON 78
CSFcoeff_80 -8.6899568431e-03 3 1  ON 79
CSFcoeff_81 -1.7927814825e-03 3 1  ON 80
CSFcoeff_82 -3.8733699770e-03 3 1  ON 81
CSFcoeff_83 3.2438286229e-03 3 1  ON 82
CSFcoeff_84 1.5233738868e-03 3 1  ON 83
CSFcoeff_85 4.9064977964e-03 3 1  ON 84
CSFcoeff_86 1.0003626713e-02 3 1  ON 85
CSFcoeff_87 9.3897881824e-03 3 1  ON 86
CSFcoeff_88 -3.5125108706e-03 3 1  ON 87
CSFcoeff_89 3.9813545353e-03 3 1  ON 88
CSFcoeff_90 -2.3736176229e-03 3 1  ON 89
CSFcoeff_91 6.4122041347e-03 3 1  ON 90
CSFcoeff_92 -1.4293129065e-04 3 1  ON 91
CSFcoeff_93 2.4451078301e-03 3 1  ON 92
CSFcoeff_94 6.7049659285e-03 3 1  ON 93
CSFcoeff_95 -9.6546509558e-03 3 1  ON 94
CSFcoeff_96 -3.7706757762e-03 3 1  ON 95
CSFcoeff_97 2.0349140871e-03 3 1  ON 96
CSFcoeff_98 -2.1427226778e-03 3 1  ON 97
CSFcoeff_99 2.2469957269e-03 3 1  ON 98
CSFcoeff_100 7.0871746452e-03 3 1  ON 99
CSFcoeff_101 -4.2867940132e-03 3 1  ON 100
CSFcoeff_102 1.5560096826e-04 3 1  ON 101
CSFcoeff_103 -4.3005763734e-03 3 1  ON 102
CSFcoeff_104 -5.1918478728e-03 3 1  ON 103
CSFcoeff_105 -1.0793746858e-03 3 1  ON 104
CSFcoeff_106 -8.1076481646e-03 3 1  ON 105
CSFcoeff_107 9.3709174242e-03 3 1  ON 106
uu_0 4.0522898094e-01 1 1  ON 107
uu_1 2.7437927406e-01 1 1  ON 108
uu_2 2.0116038644e-01 1 1  ON 109
uu_3 1.7444059844e-01 1 1  ON 110
uu_4 1.5082294136e-01 1 1  ON 111
uu_5 1.2574334620e-01 1 1  ON 112
uu_6 1.1021753640e-01 1 1  ON 113
uu_7 1.0406050165e-01 1 1  ON 114
uu_8 9.6438422217e-02 1 1  ON 115
uu_9 -1.1974519911e-02 1 1  ON 116
ud_0 5.9406985703e-01 1 1  ON 117
ud_1 2.9971512505e-01 1 1  ON 118
ud_2 1.5277597044e-01 1 1  ON 119
ud_3 1.1554007355e-01 1 1  ON 120
ud_4 1.0029478804e-01 1 1  ON 121
ud_5 8.5907212902e-02 1 1  ON 122
ud_6 7.1047800078e-02 1 1  ON 123
ud_7 3.9241620153e-02 1 1  ON 124
ud_8 3.6211118216e-02 1 1  ON 125
ud_9 2.2297165525e-02 1 1  ON 126
eO_0 -7.9173290915e+00 1 1  ON 127
eO_1 -7.6396166130e+00 1 1  ON 128
eO_2 -6.9985078927e+00 1 1  ON 129
eO_3 -6.3778291882e+00 1 1  ON 130
eO_4 -5.9453501893e+00 1 1  ON 131
eO_5 -5.7020158945e+00 1 1  ON 132
eO_6 -5.6352682307e+00 1 1  ON 133
eO_7 -5.5886264131e+00 1 1  ON 134
eO_8 -5.6508939351e+00 1 1  ON 135
eO_9 -6.1203924129e+00 1 1  ON 136
eH_0 -9.8323814665e-01 1 1  ON 137
eH_1 -9.7645417849e-01 1 1  ON 138
eH_2 -9.5866537816e-01 1 1  ON 139
eH_3 -8.7551529425e-01 1 1  ON 140
eH_4 -7.7922519943e-01 1 1  ON 141
eH_5 -7.3647397603e-01 1 1  ON 142
eH_6 -7.5646753322e-01 1 1  ON 143
eH_7 -7.3394404190e-01 1 1  ON 144
eH_8 -6.9279497483e-01 1 1  ON 145
eH_9 -6.6317777236e-01 1 1  ON 146
uuO_0 1.3471625746e-05 1 1  ON 147
uuO_1 5.4516041423e-06 1 1  ON 148
uuO_2 -1.3761423595e-05 1 1  ON 149
uuO_3 -1.6212133610e-05 1 1  ON 150
uuO_4 -2.6597621002e-06 1 1  ON 151
uuO_5 4.9974363144e-06 1 1  ON 152
uuO_6 -8.9295350373e-06 1 1  ON 153
uuO_7 -9.9568790340e-06 1 1  ON 154
uuO_8 -8.0645048458e-07 1 1  ON 155
uuO_9 -4.3536403699e-06 1 1  ON 156
uuO_10 -1.5132462934e-05 1 1  ON 157
uuO_11 1.5153276745e-05 1 1  ON 158
uuO_12 -1.8455730430e-06 1 1  ON 159
uuO_13 2.2697020727e-05 1 1  ON 160
uuO_14 1.2877598918e-06 1 1  ON 161
uuO_15 6.9055344244e-08 1 1  ON 162
uuO_16 9.9427161886e-06 1 1  ON 163
uuO_17 2.5449242797e-05 1 1  ON 164
uuO_18 -1.4706819748e-05 1 1  ON 165
uuO_19 1.7364435002e-06 1 1  ON 166
uuO_20 -1.2605963165e-05 1 1  ON 167
uuO_21 1.8862330012e-06 1 1  ON 168
uuO_22 -2.7537127841e-07 1 1  ON 169
uuO_23 5.2485297610e-06 1 1  ON 170
uuO_24 -6.1519256361e-07 1 1  ON 171
uuO_25 8.5099877239e-08 1 1  ON 172
udO_0 1.9123960736e-06 1 1  ON 173
udO_1 1.8211358667e-05 1 1  ON 174
udO_2 9.5092983442e-06 1 1  ON 175
udO_3 -1.1188017593e-05 1 1  ON 176
udO_4 -4.1148260306e-06 1 1  ON 177
udO_5 2.0474216735e-06 1 1  ON 178
udO_6 3.1048625749e-05 1 1  ON 179
udO_7 -1.5679979604e-05 1 1  ON 180
udO_8 8.2828756842e-06 1 1  ON 181
udO_9 -1.6570307293e-05 1 1  ON 182
udO_10 -8.9527676118e-06 1 1  ON 183
udO_11 5.5001854727e-06 1 1  ON 184
udO_12 -4.0528874555e-06 1 1  ON 185
udO_13 9.2160022272e-06 1 1  ON 186
udO_14 1.2725930371e-06 1 1  ON 187
udO_15 3.0458236974e-07 1 1  ON 188
udO_16 2.8560663627e-05 1 1  ON 189
udO_17 7.7056755668e-06 1 1  ON 190
udO_18 -9.9074282162e-06 1 1  ON 191
udO_19 3.7167078559e-06 1 1  ON 192
udO_20 -9.5173597845e-06 1 1  ON 193
udO_21 1.9057093367e-06 1 1  ON 194
udO_22 -6.8654156516e-07 1 1  ON 195
udO_23 3.5977181644e-06 1 1  ON 196
udO_24 -7.7079515139e-07 1 1  ON 197
udO_25 1.8912797488e-07 1 1  ON 198
uuH_0 5.8936025465e-06 1 1  ON 199
uuH_1 1.6177804654e-05 1 1  ON 200
uuH_2 3.0515360309e-06 1 1  ON 201
uuH_3 -7.3611066029e-06 1 1  ON 202
uuH_4 -1.5171645144e-06 1 1  ON 203
uuH_5 -1.6691019509e-07 1 1  ON 204
uuH_6 1.4520072364e-05 1 1  ON 205
uuH_7 -2.6817458750e-06 1 1  ON 206
uuH_8 4.8931589822e-06 1 1  ON 207
uuH_9 -1.7408003788e-05 1 1  ON 208
uuH_10 -3.4527594314e-06 1 1  ON 209
uuH_11 -4.4845457355e-06 1 1  ON 210
uuH_12 -6.9685424231e-07 1 1  ON 211
uuH_13 9.6750016909e-06 1 1  ON 212
uuH_14 4.3405029380e-07 1 1  ON 213
uuH_15 3.6168540936e-08 1 1  ON 214
uuH_16 2.2613178077e-05 1 1  ON 215
uuH_17 -7.3234690719e-07 1 1  ON 216
uuH_18 5.0675621952e-06 1 1  ON 217
uuH_19 -6.0124610903e-07 1 1  ON 218
uuH_20 -7.5534640069e-06 1 1  ON 219
uuH_21 -3.6168144803e-07 1 1  ON 220
uuH_22 1.1359948607e-07 1 1  ON 221
uuH_23 2.0935250781e-06 1 1  ON 222
uuH_24 -1.1571653379e-07 1 1  ON 223
uuH_25 -9.3849977142e-09 1 1  ON 224
udH_0 -2.1625541825e-06 1 1  ON 225
udH_1 -1.0641603633e-05 1 1  ON 226
udH_2 3.3851544647e-06 1 1  ON 227
udH_3 2.5875585654e-06 1 1  ON 228
udH_4 -1.0884953278e-06 1 1  ON 229
udH_5 1.1726084110e-06 1 1  ON 230
udH_6 -7.3996831205e-06 1 1  ON 231
udH_7 4.7860147833e-06 1 1  ON 232
udH_8 7.3061317808e-07 1 1  ON 233
udH_9 5.6637692329e-06 1 1  ON 234
udH_10 1.0977634360e-06 1 1  ON 235
udH_11 -3.9901879484e-06 1 1  ON 236
udH_12 3.6789187569e-07 1 1  ON 237
udH_13 -2.2838233636e-06 1 1  ON 238
udH_14 -8.1769197127e-07 1 1  ON 239
udH_15 6.2962844282e-08 1 1  ON 240
udH_16 4.5605711572e-06 1 1  ON 241
udH_17 -7.5552222792e-06 1 1  ON 242
udH_18 4.0760808616e-06 1 1  ON 243
udH_19 -6.6966428754e-07 1 1  ON 244
udH_20 -1.0348695584e-06 1 1  ON 245
udH_21 6.2005351425e-08 1 1  ON 246
udH_22 2.5065408834e-08 1 1  ON 247
udH_23 5.3075491218e-07 1 1  ON 248
udH_24 -7.6716530870e-08 1 1  ON 249
udH_25 4.7414905785e-09 1 1  ON 250
  </optVariables>
   Restore the number of walkers to 1, removing 159 walkers.
</opt>
</optimization-report>
  QMC Execution time = 1.0758436811e+01 secs 
  Reusing QMCFixedSampleLinearOptimize
 Using QMCCostFunctionOMP::QMCCostFunctionOMP

=========================================================
  Start QMCFixedSampleLinearOptimize
  File Root jopt-h2o.s002 append = no 
=========================================================
  Skip QMCDriver::putQMCInfo 
  Resetting Properties of the walkers 1 x 14

=========================================================
  Start VMCSingleOMP
  File Root jopt-h2o.s002 append = no 
=========================================================
Using existing walkers 
  Resetting Properties of the walkers 1 x 14

<vmc function="put">
  qmc_counter=2  my_counter=2
  time step      = 5.0000000000e-01
  blocks         = 100
  steps          = 2
  substeps       = 20
  current        = 0
  target samples = 5.1200000000e+04
  walkers/mpi    = 1

  stepsbetweensamples = 1
<parameter name="blocks" condition="int">100</parameter>
<parameter name="check_properties" condition="int">100</parameter>
<parameter name="checkproperties" condition="int">100</parameter>
<parameter name="current" condition="int">0</parameter>
<parameter name="dmcwalkersperthread" condition="real">1.6000000000e+02</parameter>
<parameter name="maxcpusecs" condition="real">3.6000000000e+05</parameter>
<parameter name="record_configs" condition="int">0</parameter>
<parameter name="record_walkers" condition="int">1</parameter>
<parameter name="recordconfigs" condition="int">0</parameter>
<parameter name="recordwalkers" condition="int">1</parameter>
<parameter name="rewind" condition="int">0</parameter>
<parameter name="samples" condition="real">5.1200000000e+04</parameter>
<parameter name="samplesperthread" condition="real">1.6000000000e+02</parameter>
<parameter name="steps" condition="int">2</parameter>
<parameter name="stepsbetweensamples" condition="int">1</parameter>
<parameter name="store_configs" condition="int">0</parameter>
<parameter name="storeconfigs" condition="int">0</parameter>
<parameter name="sub_steps" condition="int">20</parameter>
<parameter name="substeps" condition="int">20</parameter>
<parameter name="tau" condition="au">5.0000000000e-01</parameter>
<parameter name="time_step" condition="au">5.0000000000e-01</parameter>
<parameter name="timestep" condition="au">5.0000000000e-01</parameter>
<parameter name="use_drift" condition="string">yes</parameter>
<parameter name="usedrift" condition="string">yes</parameter>
<parameter name="walkers" condition="int">1</parameter>
<parameter name="warmup_steps" condition="int">25</parameter>
<parameter name="warmupsteps" condition="int">25</parameter>
  DumpConfig==false Nothing (configurations, state) will be saved.
  Walker Samples are dumped every 1 steps.
</vmc>
  EstimatorManager::add replace LocalEnergy estimator.
  EstimatorManager::add replace LocalEnergy estimator.
<optimization-report>
<vmc stage="main" blocks="100">
  Cannot make clones again. Use existing 1 clones
  Initial partition of walkers 0 1 
  Total Sample Size   =51200
  Walker distribution on root = 0 1 
====================================================
  SimpleFixedNodeBranch::finalize after a VMC block
    QMC counter        = 2
    time step          = 0.5
    reference energy   = -17.2757
    reference variance = 0.458826
====================================================
  Execution time = 3.3233126560e+00
</vmc>
<opt stage="setup">
  <log>
   Reading configurations from h5FileRoot jopt-h2o.s002
  QMCCostFunctionOMP is created with 1
   Loading configuration from MCWalkerConfiguration::SampleStack 
    number of walkers before load 1
  Using Nonlocal PP in Opt: NonLocalECP
    number of walkers after load: 160 
Using buffers for temporary storage in QMCCostFunction.

Memory usage: 
Linear method (approx matrix usage: 4*N^2): 2.0160320000e+00 MB
Deriv,HDerivRecord:      9.6384000000e-01 MB
Buffer memory cost:     MB/walker       MB/total 
Orbitals only:           2.3040000000e-03      3.6864000000e-01
Orbitals + dervs:        1.1520000000e-02      1.8432000000e+00
Inverse:                 2.5600000000e-04      4.0960000000e-02
Determinants:            2.6928000000e-02      4.3084800000e+00
  VMC Eavg = -1.1726414617e+01
  VMC Evar = 1.7984219237e+02
  Total weights = 5.1200000000e+04
  Execution time = 5.0284466000e-01
  </log>
</opt>
<opt stage="main" walkers="51200">
  <log>
Iteration: 1/1
od_largest 8.1603025693e+09
  stabilityBase -6.0000000000e+00
  stabilizerScale 2.0000000000e+00
  Using XS:-6.0000000000e+00 0 0
ERROR CostFunction-> Number of Effective Walkers is too small 2.1978621818e+01 NumWalkersEff/NumSamples 4.2926995738e-04
ERROR CostFunction-> Number of Effective Walkers is too small 2.2868532026e+01 NumWalkersEff/NumSamples 4.4665101613e-04
ERROR CostFunction-> Number of Effective Walkers is too small 1.0000568464e+00 NumWalkersEff/NumSamples 1.9532360282e-05
ERROR CostFunction-> Number of Effective Walkers is too small 1.0000007438e+00 NumWalkersEff/NumSamples 1.9531264528e-05
ERROR CostFunction-> Number of Effective Walkers is too small 1.0005829074e+00 NumWalkersEff/NumSamples 1.9542634911e-05
ERROR CostFunction-> Number of Effective Walkers is too small 1.0000568464e+00 NumWalkersEff/NumSamples 1.9532360282e-05
  Failed Step. Largest LM parameter change:4.4413742060e+01
ERROR   Using XS:-4.0000000000e+00 1 0
ERROR CostFunction-> Number of Effective Walkers is too small 2.1845012316e+01 NumWalkersEff/NumSamples 4.2666039679e-04
ERROR CostFunction-> Number of Effective Walkers is too small 2.2701144132e+01 NumWalkersEff/NumSamples 4.4338172132e-04
ERROR CostFunction-> Number of Effective Walkers is too small 1.0000554214e+00 NumWalkersEff/NumSamples 1.9532332449e-05
ERROR CostFunction-> Number of Effective Walkers is too small 1.0000007205e+00 NumWalkersEff/NumSamples 1.9531264072e-05
ERROR CostFunction-> Number of Effective Walkers is too small 1.0005706476e+00 NumWalkersEff/NumSamples 1.9542395461e-05
ERROR CostFunction-> Number of Effective Walkers is too small 1.0000554214e+00 NumWalkersEff/NumSamples 1.9532332449e-05
  Failed Step. Largest LM parameter change:4.4503406695e+01
ERROR   Using XS:-2.0000000000e+00 2 0
ERROR CostFunction-> Number of Effective Walkers is too small 2.0835753249e+01 NumWalkersEff/NumSamples 4.0694830564e-04
ERROR CostFunction-> Number of Effective Walkers is too small 2.1393996677e+01 NumWalkersEff/NumSamples 4.1785149759e-04
ERROR CostFunction-> Number of Effective Walkers is too small 1.0000453769e+00 NumWalkersEff/NumSamples 1.9532136268e-05
ERROR CostFunction-> Number of Effective Walkers is too small 1.0000005607e+00 NumWalkersEff/NumSamples 1.9531260951e-05
ERROR CostFunction-> Number of Effective Walkers is too small 1.0004826525e+00 NumWalkersEff/NumSamples 1.9540676806e-05
ERROR CostFunction-> Number of Effective Walkers is too small 1.0000453769e+00 NumWalkersEff/NumSamples 1.9532136268e-05
  Failed Step. Largest LM parameter change:4.5211097058e+01
ERROR   Using XS:0.0000000000e+00 3 0
ERROR CostFunction-> Number of Effective Walkers is too small 1.2276549002e+01 NumWalkersEff/NumSamples 2.3977634769e-04
ERROR CostFunction-> Number of Effective Walkers is too small 6.3969436878e+00 NumWalkersEff/NumSamples 1.2494030640e-04
ERROR CostFunction-> Number of Effective Walkers is too small 1.0000029606e+00 NumWalkersEff/NumSamples 1.9531307825e-05
ERROR CostFunction-> Number of Effective Walkers is too small 1.0000000204e+00 NumWalkersEff/NumSamples 1.9531250398e-05
ERROR CostFunction-> Number of Effective Walkers is too small 1.0000481013e+00 NumWalkersEff/NumSamples 1.9532189478e-05
ERROR CostFunction-> Number of Effective Walkers is too small 1.0000029606e+00 NumWalkersEff/NumSamples 1.9531307825e-05
  Failed Step. Largest LM parameter change:5.5175620962e+01
ERROR   Using XS:2.0000000000e+00 4 0
ERROR CostFunction-> Number of Effective Walkers is too small 5.8380740062e+03 NumWalkersEff/NumSamples 1.1402488293e-01
ERROR CostFunction-> Number of Effective Walkers is too small 1.3773417954e+03 NumWalkersEff/NumSamples 2.6901206941e-02
ERROR CostFunction-> Number of Effective Walkers is too small 3.8873558398e+00 NumWalkersEff/NumSamples 7.5924918747e-05
ERROR CostFunction-> Number of Effective Walkers is too small 2.1019932275e+00 NumWalkersEff/NumSamples 4.1054555224e-05
ERROR CostFunction-> Number of Effective Walkers is too small 6.7909063659e+00 NumWalkersEff/NumSamples 1.3263488996e-04
ERROR CostFunction-> Number of Effective Walkers is too small 3.8873558398e+00 NumWalkersEff/NumSamples 7.5924918747e-05
  Failed Step. Largest LM parameter change:1.1009612824e+02
ERROR   Using XS:4.0000000000e+00 5 0
Before:  ax = 0.0000000000e+00  bx=5.0004618931e-01  cx=0.0000000000e+00
After:  ax = 5.0004618931e-01  bx=0.0000000000e+00  cx=-8.0909173587e-01
Minimum found at lambda = 2.5076142502e-01
  Failed Step. Largest LM parameter change:9.0622890094e+01
ERROR   Using XS:6.0000000000e+00 6 0
Before:  ax = 0.0000000000e+00  bx=5.0000001679e-01  cx=0.0000000000e+00
After:  ax = 1.3090170440e+00  bx=4.3496148932e+01  cx=2.6180341005e+00
Minimum found at lambda = 4.3496148932e+01
  Failed Step. Largest LM parameter change:9.2491595230e+01
ERROR   Using XS:8.0000000000e+00 7 0
Before:  ax = 0.0000000000e+00  bx=5.0000000032e-01  cx=0.0000000000e+00
Problems bracketing minimum. Lower Value returned.
  Failed Step. Largest LM parameter change:7.6705041436e+01
ERROR   Using XS:1.0000000000e+01 8 0
Before:  ax = 0.0000000000e+00  bx=5.0000000001e-01  cx=0.0000000000e+00
After:  ax = 8.1401700001e+01  bx=2.3201367026e+03  cx=2.1099438425e+02
Minimum found at lambda = 2.3201367026e+03
  Failed Step. Largest LM parameter change:7.4548070185e+01
ERROR   Using XS:1.2000000000e+01 9 0
  Good Step. Largest LM parameter change:8.4403083204e-02
 OldCost: -1.6381414599e+01 NewCost: -1.6381419730e+01 Delta Cost:-5.1309013251e-06
      Current ene:     -1.7252983117e+01
      Current var:     1.7828463143e-01
      Current ene_urw:     -1.7252977895e+01
      Current var_urw: 1.7826146802e-01
Setting new Parameters
ERROR   Execution time = 5.7701975385e+01
  </log>
  <optVariables href="jopt-h2o.s002.opt.xml">
CSFcoeff_1 -3.3273470603e-02 3 1  ON 0
CSFcoeff_2 3.7459273019e-02 3 1  ON 1
CSFcoeff_3 -1.5531648341e-02 3 1  ON 2
CSFcoeff_4 2.2013953486e-02 3 1  ON 3
CSFcoeff_5 -2.0229173267e-02 3 1  ON 4
CSFcoeff_6 -1.9798915809e-02 3 1  ON 5
CSFcoeff_7 8.3444458128e-03 3 1  ON 6
CSFcoeff_8 2.2857325914e-02 3 1  ON 7
CSFcoeff_9 -1.6883123352e-02 3 1  ON 8
CSFcoeff_10 -1.8939379785e-02 3 1  ON 9
CSFcoeff_11 -1.4097188733e-02 3 1  ON 10
CSFcoeff_12 1.4788947907e-02 3 1  ON 11
CSFcoeff_13 3.2442950856e-02 3 1  ON 12
CSFcoeff_14 -1.8059810004e-02 3 1  ON 13
CSFcoeff_15 -1.7201218863e-02 3 1  ON 14
CSFcoeff_16 -1.5643543418e-02 3 1  ON 15
CSFcoeff_17 1.4406084551e-02 3 1  ON 16
CSFcoeff_18 -1.4610096749e-02 3 1  ON 17
CSFcoeff_19 -1.8247553677e-02 3 1  ON 18
CSFcoeff_20 -1.1959724744e-02 3 1  ON 19
CSFcoeff_21 1.6946307807e-02 3 1  ON 20
CSFcoeff_22 -1.9787115386e-02 3 1  ON 21
CSFcoeff_23 1.1041507778e-02 3 1  ON 22
CSFcoeff_24 -1.6809985244e-02 3 1  ON 23
CSFcoeff_25 6.7756369686e-03 3 1  ON 24
CSFcoeff_26 9.4969701311e-04 3 1  ON 25
CSFcoeff_27 -1.2109494592e-02 3 1  ON 26
CSFcoeff_28 3.7349188654e-03 3 1  ON 27
CSFcoeff_29 -1.2908408755e-02 3 1  ON 28
CSFcoeff_30 1.1852766959e-02 3 1  ON 29
CSFcoeff_31 -1.2829174603e-02 3 1  ON 30
CSFcoeff_32 -5.2237811145e-03 3 1  ON 31
CSFcoeff_33 7.2698721437e-03 3 1  ON 32
CSFcoeff_34 -9.9134801181e-03 3 1  ON 33
CSFcoeff_35 1.0829225944e-02 3 1  ON 34
CSFcoeff_36 -6.1919822552e-03 3 1  ON 35
CSFcoeff_37 1.7130332376e-02 3 1  ON 36
CSFcoeff_38 -9.1574249891e-03 3 1  ON 37
CSFcoeff_39 9.0976133782e-03 3 1  ON 38
CSFcoeff_40 -1.0336199984e-02 3 1  ON 39
CSFcoeff_41 8.0686158799e-03 3 1  ON 40
CSFcoeff_42 -6.3297667813e-04 3 1  ON 41
CSFcoeff_43 1.1566668971e-02 3 1  ON 42
CSFcoeff_44 -1.1883173020e-02 3 1  ON 43
CSFcoeff_45 -1.2551644350e-02 3 1  ON 44
CSFcoeff_46 -2.6347039774e-03 3 1  ON 45
CSFcoeff_47 1.3635898373e-02 3 1  ON 46
CSFcoeff_48 -7.4137341059e-03 3 1  ON 47
CSFcoeff_49 9.0536570466e-03 3 1  ON 48
CSFcoeff_50 -5.0097629598e-03 3 1  ON 49
CSFcoeff_51 8.5306750964e-04 3 1  ON 50
CSFcoeff_52 -1.8147803693e-03 3 1  ON 51
CSFcoeff_53 -5.1027751718e-03 3 1  ON 52
CSFcoeff_54 -6.3560627127e-03 3 1  ON 53
CSFcoeff_55 -2.8858282508e-03 3 1  ON 54
CSFcoeff_56 2.6887375612e-03 3 1  ON 55
CSFcoeff_57 -1.1097079481e-02 3 1  ON 56
CSFcoeff_58 -2.3654416733e-03 3 1  ON 57
CSFcoeff_59 2.2134666279e-03 3 1  ON 58
CSFcoeff_60 -5.8430451549e-03 3 1  ON 59
CSFcoeff_61 3.5875181525e-03 3 1  ON 60
CSFcoeff_62 -3.3648698446e-03 3 1  ON 61
CSFcoeff_63 1.8103189643e-03 3 1  ON 62
CSFcoeff_64 9.8650633785e-03 3 1  ON 63
CSFcoeff_65 -6.4947587202e-03 3 1  ON 64
CSFcoeff_66 -9.6314953393e-03 3 1  ON 65
CSFcoeff_67 4.1415880155e-03 3 1  ON 66
CSFcoeff_68 -3.8838512616e-03 3 1  ON 67
CSFcoeff_69 -9.8192377202e-03 3 1  ON 68
CSFcoeff_70 -1.0540248378e-03 3 1  ON 69
CSFcoeff_71 1.6103678565e-03 3 1  ON 70
CSFcoeff_72 -8.2004342642e-03 3 1  ON 71
CSFcoeff_73 -2.2260510454e-03 3 1  ON 72
CSFcoeff_74 5.0912935747e-03 3 1  ON 73
CSFcoeff_75 1.1775429495e-03 3 1  ON 74
CSFcoeff_76 -5.8109977319e-03 3 1  ON 75
CSFcoeff_77 2.1098388790e-03 3 1  ON 76
CSFcoeff_78 9.9059774758e-03 3 1  ON 77
CSFcoeff_79 5.4629360587e-03 3 1  ON 78
CSFcoeff_80 -8.6871323844e-03 3 1  ON 79
CSFcoeff_81 -1.7930042250e-03 3 1  ON 80
CSFcoeff_82 -3.8729981747e-03 3 1  ON 81
CSFcoeff_83 3.2422522723e-03 3 1  ON 82
CSFcoeff_84 1.5231746398e-03 3 1  ON 83
CSFcoeff_85 4.9054661306e-03 3 1  ON 84
CSFcoeff_86 9.9987604892e-03 3 1  ON 85
CSFcoeff_87 9.3878146785e-03 3 1  ON 86
CSFcoeff_88 -3.5108591619e-03 3 1  ON 87
CSFcoeff_89 3.9795716595e-03 3 1  ON 88
CSFcoeff_90 -2.3708619163e-03 3 1  ON 89
CSFcoeff_91 6.4108226671e-03 3 1  ON 90
CSFcoeff_92 -1.4096414303e-04 3 1  ON 91
CSFcoeff_93 2.4449883691e-03 3 1  ON 92
CSFcoeff_94 6.7036595969e-03 3 1  ON 93
CSFcoeff_95 -9.6517890489e-03 3 1  ON 94
CSFcoeff_96 -3.7704954763e-03 3 1  ON 95
CSFcoeff_97 2.0340000488e-03 3 1  ON 96
CSFcoeff_98 -2.1434787012e-03 3 1  ON 97
CSFcoeff_99 2.2465597136e-03 3 1  ON 98
CSFcoeff_100 7.0882816797e-03 3 1  ON 99
CSFcoeff_101 -4.2880290493e-03 3 1  ON 100
CSFcoeff_102 1.5622050636e-04 3 1  ON 101
CSFcoeff_103 -4.2994105584e-03 3 1  ON 102
CSFcoeff_104 -5.1913325554e-03 3 1  ON 103
CSFcoeff_105 -1.0784594264e-03 3 1  ON 104
CSFcoeff_106 -8.1048959414e-03 3 1  ON 105
CSFcoeff_107 9.3697543043e-03 3 1  ON 106
uu_0 4.0532004714e-01 1 1  ON 107
uu_1 2.7443843011e-01 1 1  ON 108
uu_2 2.0122161381e-01 1 1  ON 109
uu_3 1.7448884475e-01 1 1  ON 110
uu_4 1.5086489005e-01 1 1  ON 111
uu_5 1.2577846441e-01 1 1  ON 112
uu_6 1.1024890607e-01 1 1  ON 113
uu_7 1.0409048775e-01 1 1  ON 114
uu_8 9.6445444189e-02 1 1  ON 115
uu_9 -1.1916455742e-02 1 1  ON 116
ud_0 5.9412692818e-01 1 1  ON 117
ud_1 2.9974941039e-01 1 1  ON 118
ud_2 1.5280775083e-01 1 1  ON 119
ud_3 1.1555297179e-01 1 1  ON 120
ud_4 1.0030916198e-01 1 1  ON 121
ud_5 8.5918468748e-02 1 1  ON 122
ud_6 7.1051189149e-02 1 1  ON 123
ud_7 3.9241235261e-02 1 1  ON 124
ud_8 3.6189989996e-02 1 1  ON 125
ud_9 2.2313807073e-02 1 1  ON 126
eO_0 -8.0017280203e+00 1 1  ON 127
eO_1 -7.7240196962e+00 1 1  ON 128
eO_2 -7.0828788853e+00 1 1  ON 129
eO_3 -6.4620921498e+00 1 1  ON 130
eO_4 -6.0294381789e+00 1 1  ON 131
eO_5 -5.7859721878e+00 1 1  ON 132
eO_6 -5.7192331424e+00 1 1  ON 133
eO_7 -5.6725342565e+00 1 1  ON 134
eO_8 -5.7347872588e+00 1 1  ON 135
eO_9 -6.2044580221e+00 1 1  ON 136
eH_0 -9.8325819129e-01 1 1  ON 137
eH_1 -9.7646060738e-01 1 1  ON 138
eH_2 -9.5867275296e-01 1 1  ON 139
eH_3 -8.7551661621e-01 1 1  ON 140
eH_4 -7.7921636843e-01 1 1  ON 141
eH_5 -7.3644555255e-01 1 1  ON 142
eH_6 -7.5644441272e-01 1 1  ON 143
eH_7 -7.3391062524e-01 1 1  ON 144
eH_8 -6.9277201557e-01 1 1  ON 145
eH_9 -6.6311886952e-01 1 1  ON 146
uuO_0 1.3461520396e-05 1 1  ON 147
uuO_1 5.4453542054e-06 1 1  ON 148
uuO_2 -1.3743421868e-05 1 1  ON 149
uuO_3 -1.6196429792e-05 1 1  ON 150
uuO_4 -2.6584587436e-06 1 1  ON 151
uuO_5 4.9980837251e-06 1 1  ON 152
uuO_6 -8.9244038566e-06 1 1  ON 153
uuO_7 -9.9272627317e-06 1 1  ON 154
uuO_8 -7.9750645295e-07 1 1  ON 155
uuO_9 -4.3540958746e-06 1 1  ON 156
uuO_10 -1.5117062350e-05 1 1  ON 157
uuO_11 1.5118037859e-05 1 1  ON 158
uuO_12 -1.8435454476e-06 1 1  ON 159
uuO_13 2.2671792022e-05 1 1  ON 160
uuO_14 1.2871071593e-06 1 1  ON 161
uuO_15 6.8919562190e-08 1 1  ON 162
uuO_16 9.9600014304e-06 1 1  ON 163
uuO_17 2.5406970630e-05 1 1  ON 164
uuO_18 -1.4671838791e-05 1 1  ON 165
uuO_19 1.7319132075e-06 1 1  ON 166
uuO_20 -1.2598024994e-05 1 1  ON 167
uuO_21 1.8819192728e-06 1 1  ON 168
uuO_22 -2.7459344643e-07 1 1  ON 169
uuO_23 5.2459142463e-06 1 1  ON 170
uuO_24 -6.1425885236e-07 1 1  ON 171
uuO_25 8.4922115819e-08 1 1  ON 172
udO_0 1.9109055131e-06 1 1  ON 173
udO_1 1.8207811276e-05 1 1  ON 174
udO_2 9.5179940317e-06 1 1  ON 175
udO_3 -1.1179684327e-05 1 1  ON 176
udO_4 -4.1140568392e-06 1 1  ON 177
udO_5 2.0489831938e-06 1 1  ON 178
udO_6 3.1047939207e-05 1 1  ON 179
udO_7 -1.5659487920e-05 1 1  ON 180
udO_8 8.2922374878e-06 1 1  ON 181
udO_9 -1.6573093966e-05 1 1  ON 182
udO_10 -8.9442402143e-06 1 1  ON 183
udO_11 5.4732465235e-06 1 1  ON 184
udO_12 -4.0527327391e-06 1 1  ON 185
udO_13 9.2046181436e-06 1 1  ON 186
udO_14 1.2739859700e-06 1 1  ON 187
udO_15 3.0440975298e-07 1 1  ON 188
udO_16 2.8578903280e-05 1 1  ON 189
udO_17 7.6810208833e-06 1 1  ON 190
udO_18 -9.8797289859e-06 1 1  ON 191
udO_19 3.7134365583e-06 1 1  ON 192
udO_20 -9.5166070037e-06 1 1  ON 193
udO_21 1.9017515718e-06 1 1  ON 194
udO_22 -6.8581295194e-07 1 1  ON 195
udO_23 3.5979189607e-06 1 1  ON 196
udO_24 -7.7005678875e-07 1 1  ON 197
udO_25 1.8895698904e-07 1 1  ON 198
uuH_0 5.8857399537e-06 1 1  ON 199
uuH_1 1.6194367257e-05 1 1  ON 200
uuH_2 3.0606631419e-06 1 1  ON 201
uuH_3 -7.3620247660e-06 1 1  ON 202
uuH_4 -1.5182313736e-06 1 1  ON 203
uuH_5 -1.6885330179e-07 1 1  ON 204
uuH_6 1.4562237733e-05 1 1  ON 205
uuH_7 -2.7126448830e-06 1 1  ON 206
uuH_8 4.8904696669e-06 1 1  ON 207
uuH_9 -1.7422614921e-05 1 1  ON 208
uuH_10 -3.4554285400e-06 1 1  ON 209
uuH_11 -4.4709650598e-06 1 1  ON 210
uuH_12 -6.9710363987e-07 1 1  ON 211
uuH_13 9.6751407322e-06 1 1  ON 212
uuH_14 4.3124043756e-07 1 1  ON 213
uuH_15 3.6453735078e-08 1 1  ON 214
uuH_16 2.2627460113e-05 1 1  ON 215
uuH_17 -7.3586612120e-07 1 1  ON 216
uuH_18 5.0591273268e-06 1 1  ON 217
uuH_19 -5.9992019923e-07 1 1  ON 218
uuH_20 -7.5551742135e-06 1 1  ON 219
uuH_21 -3.6000416277e-07 1 1  ON 220
uuH_22 1.1325505110e-07 1 1  ON 221
uuH_23 2.0939272868e-06 1 1  ON 222
uuH_24 -1.1600431043e-07 1 1  ON 223
uuH_25 -9.3115874390e-09 1 1  ON 224
udH_0 -2.1614131842e-06 1 1  ON 225
udH_1 -1.0646792503e-05 1 1  ON 226
udH_2 3.3826235622e-06 1 1  ON 227
udH_3 2.5885504750e-06 1 1  ON 228
udH_4 -1.0877395897e-06 1 1  ON 229
udH_5 1.1728417889e-06 1 1  ON 230
udH_6 -7.4112608727e-06 1 1  ON 231
udH_7 4.7890484154e-06 1 1  ON 232
udH_8 7.3226217172e-07 1 1  ON 233
udH_9 5.6712394831e-06 1 1  ON 234
udH_10 1.0993536713e-06 1 1  ON 235
udH_11 -3.9932247409e-06 1 1  ON 236
udH_12 3.6734316353e-07 1 1  ON 237
udH_13 -2.2841082558e-06 1 1  ON 238
udH_14 -8.1654309216e-07 1 1  ON 239
udH_15 6.2911324493e-08 1 1  ON 240
udH_16 4.5521950201e-06 1 1  ON 241
udH_17 -7.5530739774e-06 1 1  ON 242
udH_18 4.0789090632e-06 1 1  ON 243
udH_19 -6.6970991319e-07 1 1  ON 244
udH_20 -1.0340724084e-06 1 1  ON 245
udH_21 6.1201714115e-08 1 1  ON 246
udH_22 2.5163605186e-08 1 1  ON 247
udH_23 5.3076998445e-07 1 1  ON 248
udH_24 -7.6578416602e-08 1 1  ON 249
udH_25 4.7164682634e-09 1 1  ON 250
  </optVariables>
   Restore the number of walkers to 1, removing 159 walkers.
</opt>
</optimization-report>
  QMC Execution time = 5.7718260852e+01 secs 
  Reusing QMCFixedSampleLinearOptimize
 Using QMCCostFunctionOMP::QMCCostFunctionOMP

=========================================================
  Start QMCFixedSampleLinearOptimize
  File Root jopt-h2o.s003 append = no 
=========================================================
  Skip QMCDriver::putQMCInfo 
  Resetting Properties of the walkers 1 x 14

=========================================================
  Start VMCSingleOMP
  File Root jopt-h2o.s003 append = no 
=========================================================
Using existing walkers 
  Resetting Properties of the walkers 1 x 14

<vmc function="put">
  qmc_counter=3  my_counter=3
  time step      = 5.0000000000e-01
  blocks         = 100
  steps          = 2
  substeps       = 20
  current        = 0
  target samples = 5.1200000000e+04
  walkers/mpi    = 1

  stepsbetweensamples = 1
<parameter name="blocks" condition="int">100</parameter>
<parameter name="check_properties" condition="int">100</parameter>
<parameter name="checkproperties" condition="int">100</parameter>
<parameter name="current" condition="int">0</parameter>
<parameter name="dmcwalkersperthread" condition="real">1.6000000000e+02</parameter>
<parameter name="maxcpusecs" condition="real">3.6000000000e+05</parameter>
<parameter name="record_configs" condition="int">0</parameter>
<parameter name="record_walkers" condition="int">1</parameter>
<parameter name="recordconfigs" condition="int">0</parameter>
<parameter name="recordwalkers" condition="int">1</parameter>
<parameter name="rewind" condition="int">0</parameter>
<parameter name="samples" condition="real">5.1200000000e+04</parameter>
<parameter name="samplesperthread" condition="real">1.6000000000e+02</parameter>
<parameter name="steps" condition="int">2</parameter>
<parameter name="stepsbetweensamples" condition="int">1</parameter>
<parameter name="store_configs" condition="int">0</parameter>
<parameter name="storeconfigs" condition="int">0</parameter>
<parameter name="sub_steps" condition="int">20</parameter>
<parameter name="substeps" condition="int">20</parameter>
<parameter name="tau" condition="au">5.0000000000e-01</parameter>
<parameter name="time_step" condition="au">5.0000000000e-01</parameter>
<parameter name="timestep" condition="au">5.0000000000e-01</parameter>
<parameter name="use_drift" condition="string">yes</parameter>
<parameter name="usedrift" condition="string">yes</parameter>
<parameter name="walkers" condition="int">1</parameter>
<parameter name="warmup_steps" condition="int">25</parameter>
<parameter name="warmupsteps" condition="int">25</parameter>
  DumpConfig==false Nothing (configurations, state) will be saved.
  Walker Samples are dumped every 1 steps.
</vmc>
  EstimatorManager::add replace LocalEnergy estimator.
  EstimatorManager::add replace LocalEnergy estimator.
<optimization-report>
<vmc stage="main" blocks="100">
  Cannot make clones again. Use existing 1 clones
  Initial partition of walkers 0 1 
  Total Sample Size   =51200
  Walker distribution on root = 0 1 
====================================================
  SimpleFixedNodeBranch::finalize after a VMC block
    QMC counter        = 3
    time step          = 0.5
    reference energy   = -17.2463
    reference variance = 0.375451
====================================================
  Execution time = 3.3100369820e+00
</vmc>
<opt stage="setup">
  <log>
   Reading configurations from h5FileRoot jopt-h2o.s003
  QMCCostFunctionOMP is created with 1
   Loading configuration from MCWalkerConfiguration::SampleStack 
    number of walkers before load 1
  Using Nonlocal PP in Opt: NonLocalECP
    number of walkers after load: 160 
Using buffers for temporary storage in QMCCostFunction.

Memory usage: 
Linear method (approx matrix usage: 4*N^2): 2.0160320000e+00 MB
Deriv,HDerivRecord:      9.6384000000e-01 MB
Buffer memory cost:     MB/walker       MB/total 
Orbitals only:           2.3040000000e-03      3.6864000000e-01
Orbitals + dervs:        1.1520000000e-02      1.8432000000e+00
Inverse:                 2.5600000000e-04      4.0960000000e-02
Determinants:            2.6928000000e-02      4.3084800000e+00
  VMC Eavg = -1.1732865986e+01
  VMC Evar = 1.6541947824e+02
  Total weights = 5.1200000000e+04
  Execution time = 5.0123147600e-01
  </log>
</opt>
<opt stage="main" walkers="51200">
  <log>
Iteration: 1/1
od_largest 5.9331750772e+09
  stabilityBase -6.0000000000e+00
  stabilizerScale 2.0000000000e+00
  Using XS:-6.0000000000e+00 0 0
ERROR CostFunction-> Number of Effective Walkers is too small 1.0000465294e+00 NumWalkersEff/NumSamples 1.9532158777e-05
ERROR CostFunction-> Number of Effective Walkers is too small 1.4526049507e+03 NumWalkersEff/NumSamples 2.8371190443e-02
ERROR CostFunction-> Number of Effective Walkers is too small 1.0000000024e+00 NumWalkersEff/NumSamples 1.9531250047e-05
ERROR CostFunction-> Number of Effective Walkers is too small 1.0000000000e+00 NumWalkersEff/NumSamples 1.9531250000e-05
ERROR CostFunction-> Number of Effective Walkers is too small 1.0000000000e+00 NumWalkersEff/NumSamples 1.9531250000e-05
ERROR CostFunction-> Number of Effective Walkers is too small 1.0000000000e+00 NumWalkersEff/NumSamples 1.9531250000e-05
  Failed Step. Largest LM parameter change:4.0168478952e+03
ERROR   Using XS:-4.0000000000e+00 1 0
ERROR CostFunction-> Number of Effective Walkers is too small 1.0000457692e+00 NumWalkersEff/NumSamples 1.9532143930e-05
ERROR CostFunction-> Number of Effective Walkers is too small 1.4436704813e+03 NumWalkersEff/NumSamples 2.8196689089e-02
ERROR CostFunction-> Number of Effective Walkers is too small 1.0000000023e+00 NumWalkersEff/NumSamples 1.9531250046e-05
ERROR CostFunction-> Number of Effective Walkers is too small 1.0000000000e+00 NumWalkersEff/NumSamples 1.9531250000e-05
ERROR CostFunction-> Number of Effective Walkers is too small 1.0000000000e+00 NumWalkersEff/NumSamples 1.9531250000e-05
ERROR CostFunction-> Number of Effective Walkers is too small 1.0000000000e+00 NumWalkersEff/NumSamples 1.9531250000e-05
  Failed Step. Largest LM parameter change:4.0236599617e+03
ERROR   Using XS:-2.0000000000e+00 2 0
ERROR CostFunction-> Number of Effective Walkers is too small 1.0000402217e+00 NumWalkersEff/NumSamples 1.9532035579e-05
ERROR CostFunction-> Number of Effective Walkers is too small 1.3756309307e+03 NumWalkersEff/NumSamples 2.6867791615e-02
ERROR CostFunction-> Number of Effective Walkers is too small 1.0000000018e+00 NumWalkersEff/NumSamples 1.9531250035e-05
ERROR CostFunction-> Number of Effective Walkers is too small 1.0000000000e+00 NumWalkersEff/NumSamples 1.9531250000e-05
ERROR CostFunction-> Number of Effective Walkers is too small 1.0000000000e+00 NumWalkersEff/NumSamples 1.9531250000e-05
ERROR CostFunction-> Number of Effective Walkers is too small 1.0000000000e+00 NumWalkersEff/NumSamples 1.9531250000e-05
[...]
uuH_20 -6.1990489538e-06 1 1  ON 219
uuH_21 -1.1047445647e-06 1 1  ON 220
uuH_22 3.2122984626e-07 1 1  ON 221
uuH_23 1.9898914618e-06 1 1  ON 222
uuH_24 4.2659648251e-09 1 1  ON 223
uuH_25 -4.1654830500e-08 1 1  ON 224
udH_0 -1.7141479391e-06 1 1  ON 225
udH_1 -1.1218750228e-05 1 1  ON 226
udH_2 1.8601269967e-06 1 1  ON 227
udH_3 2.2024882583e-06 1 1  ON 228
udH_4 -4.4544143754e-07 1 1  ON 229
udH_5 1.2403922095e-06 1 1  ON 230
udH_6 -1.0334513903e-05 1 1  ON 231
udH_7 1.9113338333e-06 1 1  ON 232
udH_8 5.5764447315e-07 1 1  ON 233
udH_9 8.2406066245e-06 1 1  ON 234
udH_10 1.6096869906e-06 1 1  ON 235
udH_11 -2.3708728508e-06 1 1  ON 236
udH_12 2.3710184882e-07 1 1  ON 237
udH_13 -9.1739011379e-07 1 1  ON 238
udH_14 -4.8577151082e-07 1 1  ON 239
udH_15 3.7606005330e-08 1 1  ON 240
udH_16 -2.4285842300e-06 1 1  ON 241
udH_17 -3.6903069329e-06 1 1  ON 242
udH_18 2.4410400769e-06 1 1  ON 243
udH_19 -4.8353170940e-07 1 1  ON 244
udH_20 -1.9701130472e-07 1 1  ON 245
udH_21 -9.6018165770e-09 1 1  ON 246
udH_22 4.6142207145e-08 1 1  ON 247
udH_23 3.0820964437e-07 1 1  ON 248
udH_24 -3.9486538323e-08 1 1  ON 249
udH_25 -6.5684527851e-09 1 1  ON 250
  </optVariables>
   Restore the number of walkers to 1, removing 159 walkers.
</opt>
</optimization-report>
  QMC Execution time = 1.0642908260e+01 secs 
  Reusing QMCFixedSampleLinearOptimize
 Using QMCCostFunctionOMP::QMCCostFunctionOMP

=========================================================
  Start QMCFixedSampleLinearOptimize
  File Root jopt-h2o.s009 append = no 
=========================================================
  Skip QMCDriver::putQMCInfo 
  Resetting Properties of the walkers 1 x 14

=========================================================
  Start VMCSingleOMP
  File Root jopt-h2o.s009 append = no 
=========================================================
Using existing walkers 
  Resetting Properties of the walkers 1 x 14

<vmc function="put">
  qmc_counter=9  my_counter=9
  time step      = 5.0000000000e-01
  blocks         = 100
  steps          = 2
  substeps       = 20
  current        = 0
  target samples = 5.1200000000e+04
  walkers/mpi    = 1

  stepsbetweensamples = 1
<parameter name="blocks" condition="int">100</parameter>
<parameter name="check_properties" condition="int">100</parameter>
<parameter name="checkproperties" condition="int">100</parameter>
<parameter name="current" condition="int">0</parameter>
<parameter name="dmcwalkersperthread" condition="real">1.6000000000e+02</parameter>
<parameter name="maxcpusecs" condition="real">3.6000000000e+05</parameter>
<parameter name="record_configs" condition="int">0</parameter>
<parameter name="record_walkers" condition="int">1</parameter>
<parameter name="recordconfigs" condition="int">0</parameter>
<parameter name="recordwalkers" condition="int">1</parameter>
<parameter name="rewind" condition="int">0</parameter>
<parameter name="samples" condition="real">5.1200000000e+04</parameter>
<parameter name="samplesperthread" condition="real">1.6000000000e+02</parameter>
<parameter name="steps" condition="int">2</parameter>
<parameter name="stepsbetweensamples" condition="int">1</parameter>
<parameter name="store_configs" condition="int">0</parameter>
<parameter name="storeconfigs" condition="int">0</parameter>
<parameter name="sub_steps" condition="int">20</parameter>
<parameter name="substeps" condition="int">20</parameter>
<parameter name="tau" condition="au">5.0000000000e-01</parameter>
<parameter name="time_step" condition="au">5.0000000000e-01</parameter>
<parameter name="timestep" condition="au">5.0000000000e-01</parameter>
<parameter name="use_drift" condition="string">yes</parameter>
<parameter name="usedrift" condition="string">yes</parameter>
<parameter name="walkers" condition="int">1</parameter>
<parameter name="warmup_steps" condition="int">25</parameter>
<parameter name="warmupsteps" condition="int">25</parameter>
  DumpConfig==false Nothing (configurations, state) will be saved.
  Walker Samples are dumped every 1 steps.
</vmc>
  EstimatorManager::add replace LocalEnergy estimator.
  EstimatorManager::add replace LocalEnergy estimator.
<optimization-report>
<vmc stage="main" blocks="100">
  Cannot make clones again. Use existing 1 clones
  Initial partition of walkers 0 1 
  Total Sample Size   =51200
  Walker distribution on root = 0 1 
====================================================
  SimpleFixedNodeBranch::finalize after a VMC block
    QMC counter        = 9
    time step          = 0.5
    reference energy   = -17.2511
    reference variance = 0.41056
====================================================
  Execution time = 3.3115574500e+00
</vmc>
<opt stage="setup">
  <log>
   Reading configurations from h5FileRoot jopt-h2o.s009
  QMCCostFunctionOMP is created with 1
   Loading configuration from MCWalkerConfiguration::SampleStack 
    number of walkers before load 1
  Using Nonlocal PP in Opt: NonLocalECP
    number of walkers after load: 160 
Using buffers for temporary storage in QMCCostFunction.

Memory usage: 
Linear method (approx matrix usage: 4*N^2): 2.0160320000e+00 MB
Deriv,HDerivRecord:      9.6384000000e-01 MB
Buffer memory cost:     MB/walker       MB/total 
Orbitals only:           2.3040000000e-03      3.6864000000e-01
Orbitals + dervs:        1.1520000000e-02      1.8432000000e+00
Inverse:                 2.5600000000e-04      4.0960000000e-02
Determinants:            2.6928000000e-02      4.3084800000e+00
  VMC Eavg = -8.2943664378e+00
  VMC Evar = 4.7361688978e+02
  Total weights = 5.1200000000e+04
  Execution time = 5.1989912101e-01
  </log>
</opt>
<opt stage="main" walkers="51200">
  <log>
Iteration: 1/1
od_largest 3.0234507736e+10
  stabilityBase -6.0000000000e+00
  stabilizerScale 2.0000000000e+00
  Using XS:-6.0000000000e+00 0 0
ERROR CostFunction-> Number of Effective Walkers is too small 1.9424217896e+00 NumWalkersEff/NumSamples 3.7937925579e-05
ERROR CostFunction-> Number of Effective Walkers is too small 1.4137395536e+00 NumWalkersEff/NumSamples 2.7612100656e-05
ERROR CostFunction-> Number of Effective Walkers is too small 1.1453527993e+00 NumWalkersEff/NumSamples 2.2370171860e-05
ERROR CostFunction-> Number of Effective Walkers is too small 1.0639747595e+00 NumWalkersEff/NumSamples 2.0780757021e-05
ERROR CostFunction-> Number of Effective Walkers is too small 1.8079870523e+00 NumWalkersEff/NumSamples 3.5312247116e-05
  Failed Step. Largest LM parameter change:2.7588355342e+03
ERROR   Using XS:-4.0000000000e+00 1 0
ERROR CostFunction-> Number of Effective Walkers is too small 1.9423347044e+00 NumWalkersEff/NumSamples 3.7936224696e-05
ERROR CostFunction-> Number of Effective Walkers is too small 1.4136775967e+00 NumWalkersEff/NumSamples 2.7610890561e-05
ERROR CostFunction-> Number of Effective Walkers is too small 1.1452644771e+00 NumWalkersEff/NumSamples 2.2368446818e-05
ERROR CostFunction-> Number of Effective Walkers is too small 1.0641738941e+00 NumWalkersEff/NumSamples 2.0784646369e-05
ERROR CostFunction-> Number of Effective Walkers is too small 1.8073742823e+00 NumWalkersEff/NumSamples 3.5300278952e-05
  Failed Step. Largest LM parameter change:2.7590814756e+03
ERROR   Using XS:-2.0000000000e+00 2 0
ERROR CostFunction-> Number of Effective Walkers is too small 1.9416588018e+00 NumWalkersEff/NumSamples 3.7923023473e-05
ERROR CostFunction-> Number of Effective Walkers is too small 1.4131966465e+00 NumWalkersEff/NumSamples 2.7601497003e-05
ERROR CostFunction-> Number of Effective Walkers is too small 1.1445787433e+00 NumWalkersEff/NumSamples 2.2355053580e-05
ERROR CostFunction-> Number of Effective Walkers is too small 1.0657332185e+00 NumWalkersEff/NumSamples 2.0815101924e-05
ERROR CostFunction-> Number of Effective Walkers is too small 1.8026065107e+00 NumWalkersEff/NumSamples 3.5207158411e-05
  Failed Step. Largest LM parameter change:2.7609914103e+03
ERROR   Using XS:0.0000000000e+00 3 0
ERROR CostFunction-> Number of Effective Walkers is too small 8.4917071640e+03 NumWalkersEff/NumSamples 1.6585365555e-01
ERROR CostFunction-> Number of Effective Walkers is too small 1.0911830293e+00 NumWalkersEff/NumSamples 2.1312168541e-05
ERROR CostFunction-> Number of Effective Walkers is too small 1.2648250407e+00 NumWalkersEff/NumSamples 2.4703614076e-05
ERROR CostFunction-> Number of Effective Walkers is too small 1.9288995527e+00 NumWalkersEff/NumSamples 3.7673819388e-05
ERROR CostFunction-> Number of Effective Walkers is too small 1.2232712410e+00 NumWalkersEff/NumSamples 2.3892016425e-05
ERROR CostFunction-> Number of Effective Walkers is too small 1.0439162257e+00 NumWalkersEff/NumSamples 2.0388988783e-05
  Failed Step. Largest LM parameter change:2.6729859945e+03
ERROR   Using XS:2.0000000000e+00 4 0
Before:  ax = 0.0000000000e+00  bx=5.0000842424e-01  cx=0.0000000000e+00
Problems bracketing minimum. Lower Value returned.
  Failed Step. Largest LM parameter change:2.6799229467e+01
ERROR   Using XS:4.0000000000e+00 5 0
Before:  ax = 0.0000000000e+00  bx=5.0000042835e-01  cx=0.0000000000e+00
Problems bracketing minimum. Lower Value returned.
  Failed Step. Largest LM parameter change:1.5598045991e+02
ERROR   Using XS:6.0000000000e+00 6 0
Before:  ax = 0.0000000000e+00  bx=5.0000000746e-01  cx=0.0000000000e+00
After:  ax = 1.3090170195e+00  bx=4.1992168271e+01  cx=2.6180340516e+00
Minimum found at lambda = 4.1992168271e+01
  Failed Step. Largest LM parameter change:1.9914436588e+02
ERROR   Using XS:8.0000000000e+00 7 0
Before:  ax = 0.0000000000e+00  bx=5.0000000014e-01  cx=0.0000000000e+00
Problems bracketing minimum. Lower Value returned.
  Failed Step. Largest LM parameter change:1.6756121951e+02
ERROR   Using XS:1.0000000000e+01 8 0
  Good Step. Largest LM parameter change:1.7991696555e+00
 OldCost: -1.6386343171e+01 NewCost: -1.6386366728e+01 Delta Cost:-2.3557166600e-05
      Current ene:     -1.7257522505e+01
      Current var:     1.6559302505e-01
      Current ene_urw:     -1.7257501652e+01
      Current var_urw: 1.6558551625e-01
Setting new Parameters
ERROR   Execution time = 3.7280835761e+01
  </log>
  <optVariables href="jopt-h2o.s009.opt.xml">
CSFcoeff_1 -3.1117827723e-02 3 1  ON 0
CSFcoeff_2 3.1406071135e-02 3 1  ON 1
CSFcoeff_3 -1.4580666663e-02 3 1  ON 2
CSFcoeff_4 1.9305583158e-02 3 1  ON 3
CSFcoeff_5 -1.7796908811e-02 3 1  ON 4
CSFcoeff_6 -1.9175748376e-02 3 1  ON 5
CSFcoeff_7 9.1159415233e-03 3 1  ON 6
CSFcoeff_8 1.8889346690e-02 3 1  ON 7
CSFcoeff_9 -1.4826643078e-02 3 1  ON 8
CSFcoeff_10 -1.6513030937e-02 3 1  ON 9
CSFcoeff_11 -1.4514515823e-02 3 1  ON 10
CSFcoeff_12 1.3977825976e-02 3 1  ON 11
CSFcoeff_13 3.3083733282e-02 3 1  ON 12
CSFcoeff_14 -1.6102735133e-02 3 1  ON 13
CSFcoeff_15 -1.6371313613e-02 3 1  ON 14
CSFcoeff_16 -1.5822382318e-02 3 1  ON 15
CSFcoeff_17 1.2209905181e-02 3 1  ON 16
CSFcoeff_18 -1.2576150852e-02 3 1  ON 17
CSFcoeff_19 -1.7695317686e-02 3 1  ON 18
CSFcoeff_20 -1.1019703738e-02 3 1  ON 19
CSFcoeff_21 1.5011002240e-02 3 1  ON 20
CSFcoeff_22 -1.7018371671e-02 3 1  ON 21
CSFcoeff_23 1.1794133773e-02 3 1  ON 22
CSFcoeff_24 -1.4108536474e-02 3 1  ON 23
CSFcoeff_25 5.2212013236e-03 3 1  ON 24
CSFcoeff_26 1.2509580899e-03 3 1  ON 25
CSFcoeff_27 -1.0676818012e-02 3 1  ON 26
CSFcoeff_28 8.8534332979e-04 3 1  ON 27
CSFcoeff_29 -1.1587188394e-02 3 1  ON 28
CSFcoeff_30 9.9839435685e-03 3 1  ON 29
CSFcoeff_31 -1.0695315667e-02 3 1  ON 30
CSFcoeff_32 -3.8303607149e-03 3 1  ON 31
CSFcoeff_33 8.1620106941e-03 3 1  ON 32
CSFcoeff_34 -8.5599000239e-03 3 1  ON 33
CSFcoeff_35 7.5365308500e-03 3 1  ON 34
CSFcoeff_36 -4.5599145879e-03 3 1  ON 35
CSFcoeff_37 1.4563240018e-02 3 1  ON 36
CSFcoeff_38 -7.8157811373e-03 3 1  ON 37
CSFcoeff_39 7.7244853147e-03 3 1  ON 38
CSFcoeff_40 -1.2213252034e-02 3 1  ON 39
CSFcoeff_41 5.1516697135e-03 3 1  ON 40
CSFcoeff_42 -1.6002814152e-03 3 1  ON 41
CSFcoeff_43 1.1155708224e-02 3 1  ON 42
CSFcoeff_44 -9.8136570285e-03 3 1  ON 43
CSFcoeff_45 -1.3604036174e-02 3 1  ON 44
CSFcoeff_46 -2.8421149759e-03 3 1  ON 45
CSFcoeff_47 1.1595499010e-02 3 1  ON 46
CSFcoeff_48 -6.8196806338e-03 3 1  ON 47
CSFcoeff_49 7.7829398295e-03 3 1  ON 48
CSFcoeff_50 -3.5449651203e-03 3 1  ON 49
CSFcoeff_51 8.7509629751e-04 3 1  ON 50
CSFcoeff_52 -3.4896291257e-03 3 1  ON 51
CSFcoeff_53 -3.9427231044e-03 3 1  ON 52
CSFcoeff_54 -5.9750166346e-03 3 1  ON 53
CSFcoeff_55 -1.7419385183e-03 3 1  ON 54
CSFcoeff_56 1.1677748840e-03 3 1  ON 55
CSFcoeff_57 -8.4940353977e-03 3 1  ON 56
CSFcoeff_58 -3.3259760475e-03 3 1  ON 57
CSFcoeff_59 3.3205019184e-03 3 1  ON 58
CSFcoeff_60 -4.2638044946e-03 3 1  ON 59
CSFcoeff_61 3.8781288182e-03 3 1  ON 60
CSFcoeff_62 -3.4237424891e-03 3 1  ON 61
CSFcoeff_63 1.1989804476e-03 3 1  ON 62
CSFcoeff_64 1.0015615425e-02 3 1  ON 63
CSFcoeff_65 -5.5234088037e-03 3 1  ON 64
CSFcoeff_66 -5.7661610775e-03 3 1  ON 65
CSFcoeff_67 3.9760943927e-03 3 1  ON 66
CSFcoeff_68 -3.9778688139e-03 3 1  ON 67
CSFcoeff_69 -7.1020010597e-03 3 1  ON 68
CSFcoeff_70 -3.1912943550e-03 3 1  ON 69
CSFcoeff_71 1.3449987111e-03 3 1  ON 70
CSFcoeff_72 -3.7692313462e-03 3 1  ON 71
CSFcoeff_73 -3.1060802556e-03 3 1  ON 72
CSFcoeff_74 4.9870563337e-03 3 1  ON 73
CSFcoeff_75 5.6981422549e-05 3 1  ON 74
CSFcoeff_76 -6.4193535921e-03 3 1  ON 75
CSFcoeff_77 2.4434275970e-03 3 1  ON 76
CSFcoeff_78 1.1057920602e-02 3 1  ON 77
CSFcoeff_79 4.9511107577e-03 3 1  ON 78
CSFcoeff_80 -5.1250055370e-03 3 1  ON 79
CSFcoeff_81 -1.9175136965e-03 3 1  ON 80
CSFcoeff_82 -3.7793701888e-03 3 1  ON 81
CSFcoeff_83 3.4312624177e-03 3 1  ON 82
CSFcoeff_84 6.1009673101e-04 3 1  ON 83
CSFcoeff_85 4.9580647514e-03 3 1  ON 84
CSFcoeff_86 6.5948653524e-03 3 1  ON 85
CSFcoeff_87 6.8204144430e-03 3 1  ON 86
CSFcoeff_88 -4.3716333830e-03 3 1  ON 87
CSFcoeff_89 1.4740559583e-03 3 1  ON 88
CSFcoeff_90 -2.6922270914e-03 3 1  ON 89
CSFcoeff_91 5.4634587412e-03 3 1  ON 90
CSFcoeff_92 1.7503326795e-03 3 1  ON 91
CSFcoeff_93 1.2907554377e-03 3 1  ON 92
CSFcoeff_94 6.6928662356e-03 3 1  ON 93
CSFcoeff_95 -8.1262847857e-03 3 1  ON 94
CSFcoeff_96 -3.3387392140e-03 3 1  ON 95
CSFcoeff_97 1.1126472019e-03 3 1  ON 96
CSFcoeff_98 -1.8429863730e-03 3 1  ON 97
CSFcoeff_99 2.3235805496e-03 3 1  ON 98
CSFcoeff_100 9.6715336727e-03 3 1  ON 99
CSFcoeff_101 -4.6103410241e-03 3 1  ON 100
CSFcoeff_102 -1.1141406901e-03 3 1  ON 101
CSFcoeff_103 -2.4650378081e-03 3 1  ON 102
CSFcoeff_104 -4.3992448173e-03 3 1  ON 103
CSFcoeff_105 4.9797367215e-04 3 1  ON 104
CSFcoeff_106 -3.9126038462e-03 3 1  ON 105
CSFcoeff_107 8.9531524659e-03 3 1  ON 106
uu_0 5.4354246844e-01 1 1  ON 107
uu_1 3.9255138202e-01 1 1  ON 108
uu_2 3.1695252004e-01 1 1  ON 109
uu_3 2.7744132088e-01 1 1  ON 110
uu_4 2.4898098769e-01 1 1  ON 111
uu_5 2.2245130842e-01 1 1  ON 112
uu_6 2.0697454452e-01 1 1  ON 113
uu_7 1.9365605331e-01 1 1  ON 114
uu_8 1.6809075742e-01 1 1  ON 115
uu_9 1.1071313055e-01 1 1  ON 116
ud_0 6.4701670508e-01 1 1  ON 117
ud_1 3.4085417661e-01 1 1  ON 118
ud_2 1.9312582614e-01 1 1  ON 119
ud_3 1.3867614445e-01 1 1  ON 120
ud_4 1.2159571812e-01 1 1  ON 121
ud_5 1.0175318201e-01 1 1  ON 122
ud_6 7.6338570777e-02 1 1  ON 123
ud_7 4.0453682100e-02 1 1  ON 124
ud_8 3.3152742555e-02 1 1  ON 125
ud_9 5.4977741151e-03 1 1  ON 126
eO_0 -2.2511759254e+01 1 1  ON 127
eO_1 -2.2222907152e+01 1 1  ON 128
eO_2 -2.1486991279e+01 1 1  ON 129
eO_3 -2.0731991904e+01 1 1  ON 130
eO_4 -2.0089799618e+01 1 1  ON 131
eO_5 -1.9720086786e+01 1 1  ON 132
eO_6 -1.9697605787e+01 1 1  ON 133
eO_7 -1.9406899123e+01 1 1  ON 134
eO_8 -1.9645324092e+01 1 1  ON 135
eO_9 -1.9671678833e+01 1 1  ON 136
eH_0 -9.0597803771e-01 1 1  ON 137
eH_1 -8.9092081360e-01 1 1  ON 138
eH_2 -8.7716652067e-01 1 1  ON 139
eH_3 -7.9066541300e-01 1 1  ON 140
eH_4 -6.9252502642e-01 1 1  ON 141
eH_5 -6.3857268497e-01 1 1  ON 142
eH_6 -6.6237427448e-01 1 1  ON 143
eH_7 -6.4675201034e-01 1 1  ON 144
eH_8 -5.7879477146e-01 1 1  ON 145
eH_9 -4.7508055191e-01 1 1  ON 146
uuO_0 4.6434181963e-06 1 1  ON 147
uuO_1 2.6320385807e-06 1 1  ON 148
uuO_2 -2.2922440642e-06 1 1  ON 149
uuO_3 -6.2721615443e-06 1 1  ON 150
uuO_4 -1.9426045701e-06 1 1  ON 151
uuO_5 6.0386964799e-06 1 1  ON 152
uuO_6 -4.3471768819e-06 1 1  ON 153
uuO_7 6.3001888362e-06 1 1  ON 154
uuO_8 4.2788200222e-06 1 1  ON 155
uuO_9 -9.9718316133e-07 1 1  ON 156
uuO_10 -6.0559778888e-06 1 1  ON 157
uuO_11 -3.7516989007e-06 1 1  ON 158
uuO_12 -1.2851094690e-06 1 1  ON 159
uuO_13 4.9764765701e-06 1 1  ON 160
uuO_14 1.2100468859e-06 1 1  ON 161
uuO_15 1.7996942919e-08 1 1  ON 162
uuO_16 1.2456101718e-05 1 1  ON 163
uuO_17 1.0707733093e-06 1 1  ON 164
uuO_18 3.8989254954e-06 1 1  ON 165
uuO_19 -8.9894650965e-08 1 1  ON 166
uuO_20 -4.0192422926e-06 1 1  ON 167
uuO_21 -8.4734811851e-07 1 1  ON 168
uuO_22 1.2080524574e-07 1 1  ON 169
uuO_23 2.3020436133e-06 1 1  ON 170
uuO_24 1.1390556988e-07 1 1  ON 171
uuO_25 -3.5167984081e-08 1 1  ON 172
udO_0 1.9390815729e-07 1 1  ON 173
udO_1 1.8385649609e-05 1 1  ON 174
udO_2 1.4765013704e-05 1 1  ON 175
udO_3 -8.1783560890e-06 1 1  ON 176
udO_4 -3.7753061263e-06 1 1  ON 177
udO_5 3.7702798246e-06 1 1  ON 178
udO_6 3.3246765699e-05 1 1  ON 179
udO_7 -8.4984805998e-06 1 1  ON 180
udO_8 1.2524527369e-05 1 1  ON 181
udO_9 -1.8019778175e-05 1 1  ON 182
udO_10 -5.3698513105e-06 1 1  ON 183
udO_11 -5.7167760619e-06 1 1  ON 184
udO_12 -4.0353774429e-06 1 1  ON 185
udO_13 4.4133292651e-06 1 1  ON 186
udO_14 1.6125925529e-06 1 1  ON 187
udO_15 2.6493874516e-07 1 1  ON 188
udO_16 3.5196458423e-05 1 1  ON 189
udO_17 -3.8876597154e-06 1 1  ON 190
udO_18 2.6209727893e-06 1 1  ON 191
udO_19 2.3395461746e-06 1 1  ON 192
udO_20 -8.6135499909e-06 1 1  ON 193
udO_21 1.1684184184e-08 1 1  ON 194
udO_22 -3.5752562618e-07 1 1  ON 195
udO_23 3.7305934139e-06 1 1  ON 196
udO_24 -4.1072400244e-07 1 1  ON 197
udO_25 1.0687831519e-07 1 1  ON 198
uuH_0 2.0060396633e-06 1 1  ON 199
uuH_1 9.7643467926e-06 1 1  ON 200
uuH_2 8.0978603690e-06 1 1  ON 201
uuH_3 2.2937413113e-06 1 1  ON 202
uuH_4 4.6780755771e-07 1 1  ON 203
uuH_5 -1.9596707587e-07 1 1  ON 204
uuH_6 1.6331593664e-05 1 1  ON 205
uuH_7 -1.6555021438e-06 1 1  ON 206
uuH_8 3.7771959007e-06 1 1  ON 207
uuH_9 -1.5940945263e-05 1 1  ON 208
uuH_10 4.8970410834e-06 1 1  ON 209
uuH_11 -1.2832067108e-05 1 1  ON 210
uuH_12 1.2550662231e-06 1 1  ON 211
uuH_13 -1.2054035011e-06 1 1  ON 212
uuH_14 -1.3734368997e-06 1 1  ON 213
uuH_15 2.1710129183e-08 1 1  ON 214
uuH_16 3.1814030833e-05 1 1  ON 215
uuH_17 -1.8651206983e-05 1 1  ON 216
uuH_18 1.5374573759e-05 1 1  ON 217
uuH_19 -2.4577146067e-06 1 1  ON 218
uuH_20 -6.1940610064e-06 1 1  ON 219
uuH_21 -1.1003035531e-06 1 1  ON 220
uuH_22 3.1992140205e-07 1 1  ON 221
uuH_23 1.9893390876e-06 1 1  ON 222
uuH_24 3.6707213428e-09 1 1  ON 223
uuH_25 -4.1370667668e-08 1 1  ON 224
udH_0 -1.7117683705e-06 1 1  ON 225
udH_1 -1.1252157017e-05 1 1  ON 226
udH_2 1.8314568235e-06 1 1  ON 227
udH_3 2.2064632955e-06 1 1  ON 228
udH_4 -4.4727434666e-07 1 1  ON 229
udH_5 1.2412762589e-06 1 1  ON 230
udH_6 -1.0402017099e-05 1 1  ON 231
udH_7 1.9547012304e-06 1 1  ON 232
udH_8 5.4994668039e-07 1 1  ON 233
udH_9 8.2908512846e-06 1 1  ON 234
udH_10 1.6021001123e-06 1 1  ON 235
udH_11 -2.3728552862e-06 1 1  ON 236
udH_12 2.3441797593e-07 1 1  ON 237
udH_13 -9.4335179006e-07 1 1  ON 238
udH_14 -4.8083246662e-07 1 1  ON 239
udH_15 3.7330220312e-08 1 1  ON 240
udH_16 -2.4528779784e-06 1 1  ON 241
udH_17 -3.6923329828e-06 1 1  ON 242
udH_18 2.4461893479e-06 1 1  ON 243
udH_19 -4.8248222422e-07 1 1  ON 244
udH_20 -1.8337257392e-07 1 1  ON 245
udH_21 -1.2264826964e-08 1 1  ON 246
udH_22 4.6451130772e-08 1 1  ON 247
udH_23 3.0387745029e-07 1 1  ON 248
udH_24 -3.9021867806e-08 1 1  ON 249
udH_25 -6.6659144236e-09 1 1  ON 250
  </optVariables>
   Restore the number of walkers to 1, removing 159 walkers.
</opt>
</optimization-report>
  QMC Execution time = 3.7296553906e+01 secs 
  Total Execution time = 2.8890919649e+02 secs

=========================================================
  A new xml input file : jopt-h2o.s009.cont.xml
Application 11223875 resources: utime ~93465s, stime ~213s, Rss ~34664, inblocks ~1341795, outblocks ~3300386
