  Input file(s): qmc.in.xml 

=====================================================
                    QMCPACK 1.0.0 

  (c) Copyright 2003-  QMCPACK developers            

  Subversion branch 6259
  Last modified     2014-02-28 09:47:36 -0500 (Fri, 28 Feb 2014)
=====================================================
  Global options 
  async_swap=0 : using blocking send/recv for walker swaps 

  MPI Nodes            = 4
  MPI Nodes per group  = 4
  MPI Group ID         = 0
  OMP_NUM_THREADS      = 4
  Input XML = qmc.in.xml

  Project = qmc
  date    = 2015-08-10 10:26:37 EDT
  host    = psi1.ornl.gov
  user    = j1k

  DO NOT READ DENSITY
  Offset for the random number seeds based on time 157
  Random number offset = 157  seeds = 937-1039
  ParticleSetPool::putLattice
  Create Global SuperCell 
  Simulation cell radius = 1.947495
  Wigner-Seitz    radius = 2.385185
<unitcell>
<parameter name="lattice">
      6.7463223000      6.7463223000      0.0000000000
      0.0000000000      3.3731611500      3.3731611500
      3.3731611500      0.0000000000      3.3731611500
</parameter>
<parameter name="bconds">  p  p  p </parameter>
<note>
Volume (A^3) = 153.5222266112
Reciprocal vectors without 2*pi.
g_1 =       0.0741144549      0.0741144549     -0.0741144549
g_2 =      -0.1482289098      0.1482289098      0.1482289098
g_3 =       0.1482289098     -0.1482289098      0.1482289098
Metric tensor in real-space.
h_1 = 91.0257291510 22.7564322877 22.7564322877 
h_2 = 22.7564322877 22.7564322877 11.3782161439 
h_3 = 22.7564322877 11.3782161439 22.7564322877 
Metric tensor in g-space.
h_1 = 0.6505592096 -0.4337061397 -0.4337061397 
h_2 = -0.4337061397 2.6022368383 -0.8674122794 
h_3 = -0.4337061397 -0.8674122794 2.6022368383 
</note>
<note>
	Long-range breakup parameters:
	rc*kc = 15.0000000000; rc = 1000000.0000000000; kc = 0.0000000000

</note>
</unitcell>
  ParticleSetPool::put
  Creating e particleset
  Initializing the lattice of e by the global supercell
  XMLParticleParser::putSpecial
  All the species have the same mass 1.0000000000
Particles are grouped. Safe to use groups 
	Long-range breakup parameters:
	rc*kc = 15.0000000000; rc = 1.9474954980; kc = 7.7022000901

	WignerSeitzRadius = 2.3851851232

	SimulationCellRadius = 1.9474954980

	Long-range breakup parameters:
	rc*kc = 15.0000000000; rc = 1.9474954980; kc = 7.7022000901

	WignerSeitzRadius = 2.3851851232

	SimulationCellRadius = 1.9474954980

--------------------------------------- 
<unitcell>
<parameter name="lattice">
      6.7463223000      6.7463223000      0.0000000000
      0.0000000000      3.3731611500      3.3731611500
      3.3731611500      0.0000000000      3.3731611500
</parameter>
<parameter name="bconds">  p  p  p </parameter>
<note>
Volume (A^3) = 153.5222266112
Reciprocal vectors without 2*pi.
g_1 =       0.0741144549      0.0741144549     -0.0741144549
g_2 =      -0.1482289098      0.1482289098      0.1482289098
g_3 =       0.1482289098     -0.1482289098      0.1482289098
Metric tensor in real-space.
h_1 = 91.0257291510 22.7564322877 22.7564322877 
h_2 = 22.7564322877 22.7564322877 11.3782161439 
h_3 = 22.7564322877 11.3782161439 22.7564322877 
Metric tensor in g-space.
h_1 = 0.6505592096 -0.4337061397 -0.4337061397 
h_2 = -0.4337061397 2.6022368383 -0.8674122794 
h_3 = -0.4337061397 -0.8674122794 2.6022368383 
</note>
<note>
	Long-range breakup parameters:
	rc*kc = 15.0000000000; rc = 1.9474954980; kc = 7.7022000901

</note>
</unitcell>
--------------------------------------- 

  Creating Structure Factor for periodic systems 7.7022000901
  KContainer initialised with cutoff 7.7022000901
   # of K-shell  = 59
   # of K points = 1188
e
  ParticleSetPool::put
  Creating ion0 particleset
  Initializing the lattice of ion0 by the global supercell
  XMLParticleParser::putSpecial
  All the species have the same mass 21894.7135906000
Particles are grouped. Safe to use groups 
	Long-range breakup parameters:
	rc*kc = 15.0000000000; rc = 1.9474954980; kc = 7.7022000901

	WignerSeitzRadius = 2.3851851232

	SimulationCellRadius = 1.9474954980

	Long-range breakup parameters:
	rc*kc = 15.0000000000; rc = 1.9474954980; kc = 7.7022000901

	WignerSeitzRadius = 2.3851851232

	SimulationCellRadius = 1.9474954980

--------------------------------------- 
<unitcell>
<parameter name="lattice">
      6.7463223000      6.7463223000      0.0000000000
      0.0000000000      3.3731611500      3.3731611500
      3.3731611500      0.0000000000      3.3731611500
</parameter>
<parameter name="bconds">  p  p  p </parameter>
<note>
Volume (A^3) = 153.5222266112
Reciprocal vectors without 2*pi.
g_1 =       0.0741144549      0.0741144549     -0.0741144549
g_2 =      -0.1482289098      0.1482289098      0.1482289098
g_3 =       0.1482289098     -0.1482289098      0.1482289098
Metric tensor in real-space.
h_1 = 91.0257291510 22.7564322877 22.7564322877 
h_2 = 22.7564322877 22.7564322877 11.3782161439 
h_3 = 22.7564322877 11.3782161439 22.7564322877 
Metric tensor in g-space.
h_1 = 0.6505592096 -0.4337061397 -0.4337061397 
h_2 = -0.4337061397 2.6022368383 -0.8674122794 
h_3 = -0.4337061397 -0.8674122794 2.6022368383 
</note>
<note>
	Long-range breakup parameters:
	rc*kc = 15.0000000000; rc = 1.9474954980; kc = 7.7022000901

</note>
</unitcell>
--------------------------------------- 

  Creating Structure Factor for periodic systems 7.7022000901
  KContainer initialised with cutoff 7.7022000901
   # of K-shell  = 59
   # of K points = 1188
ion0
 Adding WavefunctionFactory for psi0
  WaveFunctionFactory::build
  WaveFunctionFactory::addFermionTerm
  SlaterDetBuilder::put(xmlNodePtr)
  BasisSetFactory::createBasisSet
EinsplineSetBuilder:  using libeinspline for B-spline orbitals.

Built BasisSetBuilder "einspline" of type einspline
 Building SPOset  with  basis set.
TOKEN=0 createSPOSetFromXML /home/j1k/apps/qmcpack/qmcpack_r6259/src/QMCWaveFunctions/EinsplineSetBuilder_createSPOs.cpp 42
  Reading 8 orbitals from HDF5 file.
TOKEN=1 ReadOrbitalInfo /home/j1k/apps/qmcpack/qmcpack_r6259/src/QMCWaveFunctions/EinsplineSetBuilderOld.cpp 34
  HDF5 orbital file version 2.0.0
TOKEN=2 ReadOrbitalInfo_ESHDF /home/j1k/apps/qmcpack/qmcpack_r6259/src/QMCWaveFunctions/EinsplineSetBuilderESHDF.fft.cpp 47
  Reading orbital file in ESHDF format.
  ESHDF orbital file version 2.0.0
  Lattice = 
    [  3.373161  3.373161  0.000000
       0.000000  3.373161  3.373161
       3.373161  0.000000  3.373161 ]
TOKEN=3 CheckLattice /home/j1k/apps/qmcpack/qmcpack_r6259/src/QMCWaveFunctions/EinsplineSetBuilderCommon.cpp 79
  SuperLattice = 
    [  6.746322  6.746322  0.000000
       0.000000  3.373161  3.373161
       3.373161  0.000000  3.373161 ]
bands=8, elecs=16, spins=1, twists=2, muffin tins=0, core states=0
atomic orbital=0
Atom type(0) = 6
Atom type(1) = 6
   Skip initialization of the density
TIMER  EinsplineSetBuilder::ReadOrbitalInfo 0.0012650490
TIMER  EinsplineSetBuilder::BroadcastOrbitalInfo 0.0000288486
Found 1 distinct supercell twists.
number of things
2
2
Super twist #0:  [   0.00000   0.00000   0.00000 ]
  Using supercell twist 0:  [   0.00000   0.00000   0.00000]
Using 1 copies of twist angle [ 0.000,  0.000,  0.000]
Using 1 copies of twist angle [-0.500,  0.000,  0.000]
***** Use of real orbitals is possible, but not currently implemented
      with more than one twist angle.
Using complex orbitals.
TOKEN=4 TileIons /home/j1k/apps/qmcpack/qmcpack_r6259/src/QMCWaveFunctions/EinsplineSetBuilderCommon.cpp 272
TOKEN=5 OccupyBands /home/j1k/apps/qmcpack/qmcpack_r6259/src/QMCWaveFunctions/EinsplineSetBuilderCommon.cpp 731
TOKEN=6 OccupyBands_ESHDF /home/j1k/apps/qmcpack/qmcpack_r6259/src/QMCWaveFunctions/EinsplineSetBuilderESHDF.fft.cpp 308
Sorting the bands now:
We will read 8 distinct orbitals.
There are 0 core states and 8 valence states.
TOKEN=7 ReadBands_ESHDF:complex /home/j1k/apps/qmcpack/qmcpack_r6259/src/QMCWaveFunctions/EinsplineSetBuilderReadBands_ESHDF.cpp 26
  EinsplineSetBuilder::ReadBands_ESHDF(EinsplineSetExtended<complex<double > >*
TOKEN=8 ReadGvectors_ESHDF /home/j1k/apps/qmcpack/qmcpack_r6259/src/QMCWaveFunctions/EinsplineSetBuilderReadBands_ESHDF.cpp 658
B-spline mesh factor is 1.0000000000
B-spline mesh size is (44, 40, 40)
Maxmimum number of Gvecs 3828
MeshSize = (44, 40, 40)
TOKEN=9 RotateBands_ESHDF:complex /home/j1k/apps/qmcpack/qmcpack_r6259/src/QMCWaveFunctions/EinsplineSetBuilderESHDF.fft.cpp 602
 No rotations defined
TOKEN=10 bcastSortBands /home/j1k/apps/qmcpack/qmcpack_r6259/src/QMCWaveFunctions/einspline_helper.hpp 407
    READBANDS::PREP   = 0.0008289814
    READBANDS::H5     = 0.0018639565
    READBANDS::UNPACK = 0.0014741421
    READBANDS::FFT    = 0.0072236061
    READBANDS::PHASE  = 0.0048141479
    READBANDS::SPLINE = 0.0455691814
    READBANDS::SUM    = 0.0629301071
TIMER  EinsplineSetBuilder::ReadBands 0.0647108555
   Using Identity for the LCOrbitalSet 
  BasisSetFactory::createBasisSet
Reuse BasisSetBuilder "einspline" type einspline
 Building SPOset  with  basis set.
TOKEN=11 createSPOSetFromXML /home/j1k/apps/qmcpack/qmcpack_r6259/src/QMCWaveFunctions/EinsplineSetBuilder_createSPOs.cpp 42
SPOSet parameters match in EinsplineSetBuilder:  cloning EinsplineSet object.
   Using Identity for the LCOrbitalSet 
  SlaterDetBuilder::putDeterminant(xmlNodePtr,int)
  Creating a determinant updet group=0 sposet=updet
  Reusing a SPO set updet

  SlaterDetBuilder::putDeterminant(xmlNodePtr,int)
  Creating a determinant downdet group=1 sposet=downdet
  Reusing a SPO set downdet

  FermionWF=SlaterDet
  JastrowBuilder::addOneBody(xmlNodePtr)

  Using BsplineBuilder for one-body jastrow with B-spline functions
  BsplineJastrowBuilder::put(xmlNodePtr)
  BsplineJastrowBuilder::createOneBodyJastrow(xmlNodePtr)
  Distance table for AA: source/target = e
    PBC=bulk Orthorhombic=no   Using SymmetricDTD<T,D,PPPG> 7

    Setting Rmax = 1.9475 Using bounding box/reduced coordinates with 
  ... ParticleSet::addTable Create Table #0 e_e
  Distance table for AB: source = ion0 target = e
    PBC=bulk Orthorhombic=no  Using AsymmetricDTD<T,D,PPPG> 7
    Setting Rmax = 1.9475 Using bonding box/reduced coordinates 
  ... ParticleSet::addTable Create Table #1 ion0_e
  ... ParticleSet::addTable Reuse Table #1 ion0_e
  BsplineFunctor::put(xmlNodePtr)
  Jastrow cutoff unspecified.  Setting to Wigner-Seitz radius = 2.3851851232.
 size = 8 parameters 
 cusp = 0.0000000000
 rcut = 2.3851851232
Parameter     Name      Value
eC_0 -0.1372814090 1 1  ON 0
eC_1 -0.1032026175 1 1  ON 1
eC_2 -0.0857843003 1 1  ON 2
eC_3 -0.0710539875 1 1  ON 3
eC_4 -0.0571992637 1 1  ON 4
eC_5 -0.0409037329 1 1  ON 5
eC_6 -0.0259365816 1 1  ON 6
eC_7 -0.0132196253 1 1  ON 7
  JastrowBuilder::addTwoBody(xmlNodePtr)
  BsplineJastrowBuilder::put(xmlNodePtr)
  BsplineJastrowBuilder adds a functor with cusp = -0.2500000000
  BsplineFunctor::put(xmlNodePtr)
  Jastrow cutoff unspecified.  Setting to Wigner-Seitz radius = 2.3851851232.
 size = 8 parameters 
 cusp = -0.2500000000
 rcut = 2.3851851232
Parameter     Name      Value
uu_0 0.2969700506 1 1  ON 0
uu_1 0.2407083361 1 1  ON 1
uu_2 0.1830009217 1 1  ON 2
uu_3 0.1355563432 1 1  ON 3
uu_4 0.0951472506 1 1  ON 4
uu_5 0.0611261104 1 1  ON 5
uu_6 0.0345063396 1 1  ON 6
uu_7 0.0153230593 1 1  ON 7
  BsplineJastrowBuilder adds a functor with cusp = -0.5000000000
  BsplineFunctor::put(xmlNodePtr)
  Jastrow cutoff unspecified.  Setting to Wigner-Seitz radius = 2.3851851232.
 size = 8 parameters 
 cusp = -0.5000000000
 rcut = 2.3851851232
Parameter     Name      Value
ud_0 0.4704510359 1 1  ON 0
ud_1 0.3531940571 1 1  ON 1
ud_2 0.2579420961 1 1  ON 2
ud_3 0.1820538307 1 1  ON 3
ud_4 0.1211946391 1 1  ON 4
ud_5 0.0748703051 1 1  ON 5
ud_6 0.0402896354 1 1  ON 6
ud_7 0.0174225123 1 1  ON 7
  HamiltonianPool::put
  QMCHamiltonian::addOperator Kinetic to H, physical Hamiltonian 
  ForceBase::ForceBase
  ... ParticleSet::addTable Reuse Table #0 e_e
  CoulombPBCAA::CoulombPBCAA
  ... ParticleSet::addTable Reuse Table #0 e_e

  Creating CoulombHandler with the optimal breakup. 
  KContainer initialised with cutoff 35.2028130745
   # of K-shell  = 1194
   # of K points = 113300
 finding kc:  7.7022000901 , -1.0000000000
  LRBreakp parameter Kc =7.7022000901
    Continuum approximation in k = [35.2028130745,3080.8800360496)
   PBCAA self-interaction term -12.4661071304
   PBCAA total constant -13.7706915871
  Maximum K shell 58
  Number of k vectors 1188
  Fixed Coulomb potential for e
    e-e Madelung Const. =-0.2295661562
    Vtot     =0.0000000000
  QMCHamiltonian::addOperator ElecElec to H, physical Hamiltonian 
  ForceBase::ForceBase
  Distance table for AA: source/target = ion0
    PBC=bulk Orthorhombic=no   Using SymmetricDTD<T,D,PPPG> 7

    Setting Rmax = 1.9475 Using bounding box/reduced coordinates with 
  ... ParticleSet::addTable Create Table #0 ion0_ion0
  CoulombPBCAA::CoulombPBCAA
  ... ParticleSet::addTable Reuse Table #0 ion0_ion0
  Clone CoulombHandler. 
   PBCAA self-interaction term -49.8644285216
   PBCAA total constant -51.1690129783
  Maximum K shell 58
  Number of k vectors 1188
  Fixed Coulomb potential for ion0
    e-e Madelung Const. =-0.2295661562
    Vtot     =-25.5513269010
  QMCHamiltonian::addOperator IonIon to H, physical Hamiltonian 

  ECPotential builder for pseudopotential 

  Adding pseudopotential for C
   Linear grid  ri=0.0000000000 rf=10.0000000000 npts = 10001
    ECPComponentBuilder::buildSemiLocalAndLocal 
    Assuming Hartree unit
   Number of angular momentum channels 2
   Maximum angular momentum channel 1
   Creating a Linear Grid Rmax=1.7000000000
  Using global grid with delta = 0.0010000000
   Making L=1 a local potential with a radial cutoff of 9.9980000000
  NonLocalECPComponent::resize_warrays 
    Non-local pseudopotential parameters
    Maximum angular mementum = 0
    Number of non-local channels = 1
       l(0)=0
    Cutoff radius = 1.7000000000
    Spherical grids and weights: 
             1.0000000000      0.0000000000      0.0000000000        0.0833333333
            -1.0000000000      0.0000000000      0.0000000000        0.0833333333
             0.4472135955      0.8944271910      0.0000000000        0.0833333333
            -0.4472135955      0.7236067977      0.5257311121        0.0833333333
             0.4472135955      0.2763932023      0.8506508084        0.0833333333
            -0.4472135955     -0.2763932023      0.8506508084        0.0833333333
             0.4472135955     -0.7236067977      0.5257311121        0.0833333333
            -0.4472135955     -0.8944271910      0.0000000000        0.0833333333
             0.4472135955     -0.7236067977     -0.5257311121        0.0833333333
            -0.4472135955     -0.2763932023     -0.8506508084        0.0833333333
             0.4472135955      0.2763932023     -0.8506508084        0.0833333333
            -0.4472135955      0.7236067977     -0.5257311121        0.0833333333
    Maximum cutoff radius 1.7000000000
  ForceBase::ForceBase
  ... ParticleSet::addTable Reuse Table #1 ion0_e
  CoulombPBCAB::CoulombPBCAB
  ... ParticleSet::addTable Reuse Table #1 ion0_e
  Clone CoulombHandler. 
   Constant of PBCAB 2.6091689134
  Maximum K shell 58
  Number of k vectors 1188
    CoulombPBCAB::add 
 Setting a linear grid=[0,1.9474954980) number of grid =1948
    Creating the short-range pseudopotential for species 0
  QMCHamiltonian::addOperator LocalECP to H, physical Hamiltonian 
  ForceBase::ForceBase
  ... ParticleSet::addTable Reuse Table #1 ion0_e
  ... ParticleSet::addTable Reuse Table #1 ion0_e

  Using NonLocalECP potential 
    Maximum grid on a sphere for NonLocalECPotential: 12
WARNING ParticleSet::checkBoundBox 3.4000000000> SimulationCellRadius=1.9474954980
 Using SLOW method for the sphere update. 
  QMCHamiltonian::addOperator NonLocalECP to H, physical Hamiltonian 

  QMCHamiltonian::add2WalkerProperty added
    5 to P::PropertyList 
    0 to P::Collectables 
    starting Index of the observables in P::PropertyList = 9
  Hamiltonian disables VirtualMoves
ParticleSetPool::randomize 
=========================================================
 Summary of QMC systems 
=========================================================
ParticleSetPool has: 

  ParticleSet e : 0 8 16 

    16

    u  2.0983379445e+00  3.9694633423e+00  2.4396893133e+00
    u  1.3453749342e+00  4.1020218953e+00  3.7412769720e+00
    u  3.1631630957e+00  1.3024352058e+00  4.3066726969e+00
    u  6.2756533110e+00  5.2184420935e+00  4.2601220282e+00
    u  9.6299681488e-01  1.7263399261e+00  1.4279127383e+00
    u  4.1676689286e+00  2.8188242332e+00  3.6530603524e+00
    u  8.0635036846e-01  1.1928917935e+00  9.0547557269e-01
    u  3.2196239352e+00  2.0189076300e+00  5.1605022156e+00
    d  6.7460001139e+00  7.1107173783e+00  3.0154410940e+00
    d  8.6929939625e+00  7.4451865553e+00  4.0735980958e+00
    d  6.7241611034e+00  7.7502731875e+00  2.1356410957e+00
    d  5.3016663235e+00  8.5510396257e+00  3.2805869118e+00
    d  2.3772274739e+00  2.6771111621e+00  1.0305325234e+00
    d  7.7187414852e+00  8.1401099711e+00  5.9642795667e+00
    d  5.3058209148e+00  4.7379878193e+00  5.9504190061e+00
    d  6.3004876188e+00  6.8753294119e+00  2.1340046170e+00

  ParticleSet ion0 : 0 4 

    4

    C  0.0000000000e+00  0.0000000000e+00  0.0000000000e+00
    C  1.6865805800e+00  1.6865805800e+00  1.6865805800e+00
    C  3.3731611500e+00  3.3731611500e+00  0.0000000000e+00
    C  5.0597417200e+00  5.0597417200e+00  1.6865805800e+00

  Hamiltonian h0
  Kinetic         Kinetic energy
  ElecElec        CoulombPBCAA potential: e_e
  IonIon          CoulombPBCAA potential: ion0_ion0
  LocalECP        CoulombPBCAB potential source: ion0
  NonLocalECP     NonLocalECPotential: ion0

=========================================================
  Start VMCSingleOMP
  File Root qmc.s000 append = no 
=========================================================
  Adding 4 walkers to 0 existing sets
  Total number of walkers: 1.6000000000e+01
  Total weight: 1.6000000000e+01
  Resetting Properties of the walkers 1 x 14

<vmc function="put">
  qmc_counter=0  my_counter=0
  time step      = 3.0000000000e-01
  blocks         = 1000
  steps          = 2
  substeps       = 2
  current        = 0
  target samples = 0.0000000000e+00
  walkers/mpi    = 4

  stepsbetweensamples = 2002
<parameter name="blocks" condition="int">1000</parameter>
<parameter name="check_properties" condition="int">100</parameter>
<parameter name="checkproperties" condition="int">100</parameter>
<parameter name="current" condition="int">0</parameter>
<parameter name="dmcwalkersperthread" condition="real">0.0000000000e+00</parameter>
<parameter name="maxcpusecs" condition="real">3.6000000000e+05</parameter>
<parameter name="record_configs" condition="int">0</parameter>
<parameter name="record_walkers" condition="int">2002</parameter>
<parameter name="recordconfigs" condition="int">0</parameter>
<parameter name="recordwalkers" condition="int">2002</parameter>
<parameter name="rewind" condition="int">0</parameter>
<parameter name="samples" condition="real">0.0000000000e+00</parameter>
<parameter name="samplesperthread" condition="real">0.0000000000e+00</parameter>
<parameter name="steps" condition="int">2</parameter>
<parameter name="stepsbetweensamples" condition="int">2002</parameter>
<parameter name="store_configs" condition="int">0</parameter>
<parameter name="storeconfigs" condition="int">0</parameter>
<parameter name="sub_steps" condition="int">2</parameter>
<parameter name="substeps" condition="int">2</parameter>
<parameter name="tau" condition="au">3.0000000000e-01</parameter>
<parameter name="time_step" condition="au">3.0000000000e-01</parameter>
<parameter name="timestep" condition="au">3.0000000000e-01</parameter>
<parameter name="use_drift" condition="string">yes</parameter>
<parameter name="usedrift" condition="string">yes</parameter>
<parameter name="walkers" condition="int">4</parameter>
<parameter name="warmup_steps" condition="int">100</parameter>
<parameter name="warmupsteps" condition="int">100</parameter>
  DumpConfig==false Nothing (configurations, state) will be saved.
  Walker Samples are dumped every 2002 steps.
</vmc>

 TraceManager::put() 1
  traces requested          : 0
  method allows traces      : 1
  traces available          : 0

  Adding a default LocalEnergyEstimator for the MainEstimator 
  CloneManager::makeClones makes 4 clones for W/Psi/H.
  Cloning methods for both Psi and H are used
  Initial partition of walkers 0 1 2 3 4 
  PbyP moves with drift, using VMCUpdatePbyPWithDriftFast

  Total Sample Size   =0
  Walker distribution on root = 0 1 2 3 4 
====================================================
  SimpleFixedNodeBranch::finalize after a VMC block
    QMC counter        = 0
    time step          = 0.3
    reference energy   = -21.4015
    reference variance = 0.938372
====================================================
  QMC Execution time = 4.0476980209e+00 secs 
  Total Execution time = 4.0485508442e+00 secs

=========================================================
  A new xml input file : qmc.s000.cont.xml
