
     Program PWSCF v.5.0        starts on  6Jun2016 at 19:19:49 

     This program is part of the open-source Quantum ESPRESSO suite
     for quantum simulation of materials; please cite
         "P. Giannozzi et al., J. Phys.:Condens. Matter 21 395502 (2009);
          URL http://www.quantum-espresso.org", 
     in publications or presentations arising from this work. More details at
     http://www.quantum-espresso.org/quote.php

     Parallel version (MPI), running on   512 processors
     R & G space division:  proc/pool =  512

     Current dimensions of program PWSCF are:
     Max number of different atomic species (ntypx) = 10
     Max number of k-points (npk) =  40000
     Max angular momentum in pseudopotentials (lmaxx) =  3
     Reading input from dft.in

     IMPORTANT: XC functional enforced from input :
     Exchange-correlation      = LDA ( 1 1 0 0 0)
     EXX-fraction              =        0.00
     Any further DFT definition will be discarded
     Please, verify this is what you really want

               file O.BFD.upf: wavefunction(s)  0s 0p renormalized

     Subspace diagonalization in iterative solution of the eigenvalue problem:
     a serial algorithm will be used

 
     Parallelization info
     --------------------
     sticks:   dense  smooth     PW     G-vecs:    dense   smooth      PW
     Min          66      66     16                 9248     9248    1148
     Max          67      67     17                 9261     9261    1165
     Sum       34109   34109   8529              4738093  4738093  591889
 


     bravais-lattice index     =            0
     lattice parameter (alat)  =       1.0000  a.u.
     unit-cell volume          =    6748.3346 (a.u.)^3
     number of atoms/cell      =            2
     number of atomic types    =            1
     number of electrons       =        12.00 (up:   7.00, down:   5.00)
     number of Kohn-Sham states=           11
     kinetic-energy cutoff     =     300.0000  Ry
     charge density cutoff     =    1200.0000  Ry
     convergence threshold     =      1.0E-07
     mixing beta               =       0.7000
     number of iterations used =            8  plain     mixing
     Exchange-correlation      = LDA ( 1 1 0 0 0)
     EXX-fraction              =        0.00

     celldm(1)=   1.000000  celldm(2)=   0.000000  celldm(3)=   0.000000
     celldm(4)=   0.000000  celldm(5)=   0.000000  celldm(6)=   0.000000

     crystal axes: (cart. coord. in units of alat)
               a(1) = (  18.897261   0.000000   0.000000 )  
               a(2) = (   0.000000  18.897261   0.000000 )  
               a(3) = (   0.000000   0.000000  18.897261 )  

     reciprocal axes: (cart. coord. in units 2 pi/alat)
               b(1) = (  0.052918  0.000000  0.000000 )  
               b(2) = (  0.000000  0.052918  0.000000 )  
               b(3) = (  0.000000  0.000000  0.052918 )  


     PseudoPot. # 1 for O  read from file:
     ./O.BFD.upf
     MD5 check sum: e50a3faf6d087c8e93bb07d695ababf7
     Pseudo is Norm-conserving, Zval =  6.0
     Generated by new atomic code, or converted to UPF format
     Using radial grid of 2000 points,  1 beta functions with: 
                l(1) =   0

     atomic species   valence    mass     pseudopotential
        O              6.00    15.99900     O ( 1.00)

     Starting magnetic structure 
     atomic species   magnetization
        O            0.000

     No symmetry found


                                    s                        frac. trans.

      isym =  1     identity                                     

 cryst.   s( 1) = (     1          0          0      )
                  (     0          1          0      )
                  (     0          0          1      )

 cart.    s( 1) = (  1.0000000  0.0000000  0.0000000 )
                  (  0.0000000  1.0000000  0.0000000 )
                  (  0.0000000  0.0000000  1.0000000 )


     point group C_1 (1)    
     there are  1 classes
     the character table:

       E    
A      1.00

     the symmetry operations in each class:
     E        1

   Cartesian axes

     site n.     atom                  positions (alat units)
         1           O   tau(   1) = (   8.3078030   9.4486307   9.4486307  )
         2           O   tau(   2) = (  10.5894583   9.4486307   9.4486307  )

   Crystallographic axes

     site n.     atom                  positions (cryst. coord.)
         1           O   tau(   1) = (  0.4396300  0.5000000  0.5000000  )
         2           O   tau(   2) = (  0.5603700  0.5000000  0.5000000  )

     number of k points=     2  Fermi-Dirac smearing, width (Ry)=  0.0001
                       cart. coord. in units 2pi/alat
        k(    1) = (   0.0000000   0.0000000   0.0000000), wk =   1.0000000
        k(    2) = (   0.0000000   0.0000000   0.0000000), wk =   1.0000000

                       cryst. coord.
        k(    1) = (   0.0000000   0.0000000   0.0000000), wk =   1.0000000
        k(    2) = (   0.0000000   0.0000000   0.0000000), wk =   1.0000000

     Dense  grid:  4738093 G-vectors     FFT dimensions: ( 220, 220, 220)

     Largest allocated arrays     est. size (Mb)     dimensions
        Kohn-Sham Wavefunctions         0.20 Mb     (   1165,   11)
        NL pseudopotentials             0.04 Mb     (   1165,    2)
        Each V/rho on FFT grid          1.48 Mb     (  48400,   2)
        Each G-vector array             0.07 Mb     (   9259)
        G-vector shells                 0.03 Mb     (   3411)
     Largest temporary arrays     est. size (Mb)     dimensions
        Auxiliary wavefunctions         0.78 Mb     (   1165,   44)
        Each subspace H/S matrix        0.03 Mb     (  44,  44)
        Each <psi_i|beta_j> matrix      0.00 Mb     (      2,   11)
        Arrays for rho mixing           5.91 Mb     (  48400,   8)

     Initial potential from superposition of free atoms

     starting charge    0.95494, renormalised to   12.00000

     negative rho (up, down):  0.207E-04 0.207E-04
     Starting wfc are    8 randomized atomic wfcs

     total cpu time spent up to now is       32.7 secs

     per-process dynamical memory:    18.4 Mb

     Self-consistent Calculation

     iteration #  1     ecut=   300.00 Ry     beta=0.70
     Davidson diagonalization with overlap
     ethr =  1.00E-02,  avg # of iterations =  8.0

     Threshold (ethr) on eigenvalues was too large:
     Diagonalizing with lowered threshold

     Davidson diagonalization with overlap
     ethr =  8.85E-04,  avg # of iterations =  1.0

     negative rho (up, down):  0.523E-05 0.599E-05

     total cpu time spent up to now is       50.4 secs

     total energy              =     -63.69741310 Ry
     Harris-Foulkes estimate   =     -63.65720067 Ry
     estimated scf accuracy    <       0.10654746 Ry

     total magnetization       =     2.00 Bohr mag/cell
     absolute magnetization    =     2.00 Bohr mag/cell

     iteration #  2     ecut=   300.00 Ry     beta=0.70
     Davidson diagonalization with overlap
     ethr =  8.88E-04,  avg # of iterations =  2.0

     negative rho (up, down):  0.591E-06 0.998E-06

     total cpu time spent up to now is       64.8 secs

     total energy              =     -63.71559599 Ry
     Harris-Foulkes estimate   =     -63.70778197 Ry
     estimated scf accuracy    <       0.00888532 Ry

     total magnetization       =     2.00 Bohr mag/cell
     absolute magnetization    =     2.02 Bohr mag/cell

     iteration #  3     ecut=   300.00 Ry     beta=0.70
     Davidson diagonalization with overlap
     ethr =  7.40E-05,  avg # of iterations =  3.5

     negative rho (up, down):  0.191E-07 0.377E-07

     total cpu time spent up to now is       79.6 secs

     total energy              =     -63.71699368 Ry
     Harris-Foulkes estimate   =     -63.71642911 Ry
     estimated scf accuracy    <       0.00089419 Ry

     total magnetization       =     2.00 Bohr mag/cell
     absolute magnetization    =     2.03 Bohr mag/cell

     iteration #  4     ecut=   300.00 Ry     beta=0.70
     Davidson diagonalization with overlap
     ethr =  7.45E-06,  avg # of iterations =  4.0

     negative rho (up, down):  0.139E-07 0.259E-07

     total cpu time spent up to now is       94.4 secs

     total energy              =     -63.71717409 Ry
     Harris-Foulkes estimate   =     -63.71718844 Ry
     estimated scf accuracy    <       0.00005708 Ry

     total magnetization       =     2.00 Bohr mag/cell
     absolute magnetization    =     2.04 Bohr mag/cell

     iteration #  5     ecut=   300.00 Ry     beta=0.70
     Davidson diagonalization with overlap
     ethr =  4.76E-07,  avg # of iterations =  2.0

     total cpu time spent up to now is      108.9 secs

     total energy              =     -63.71719036 Ry
     Harris-Foulkes estimate   =     -63.71718626 Ry
     estimated scf accuracy    <       0.00000249 Ry

     total magnetization       =     2.00 Bohr mag/cell
     absolute magnetization    =     2.04 Bohr mag/cell

     iteration #  6     ecut=   300.00 Ry     beta=0.70
     Davidson diagonalization with overlap
     ethr =  2.08E-08,  avg # of iterations =  2.5

     total cpu time spent up to now is      111.2 secs

     End of self-consistent calculation

 ------ SPIN UP ------------


          k = 0.0000 0.0000 0.0000 (591889 PWs)   bands (ev):

   -32.5766 -20.0403 -13.6071 -13.5556 -13.5556  -6.7051  -6.7051  -0.1897
     1.0170   1.2488   1.2488

     occupation numbers 
     1.0000   1.0000   1.0000   1.0000   1.0000   1.0000   1.0000   0.0000
     0.0000   0.0000   0.0000

 ------ SPIN DOWN ----------


          k = 0.0000 0.0000 0.0000 (591889 PWs)   bands (ev):

   -31.2278 -18.2486 -12.4122 -11.7692 -11.7692  -4.5526  -4.5526  -0.1441
     1.1561   1.2950   1.2950

     occupation numbers 
     1.0000   1.0000   1.0000   1.0000   1.0000   0.0000   0.0000   0.0000
     0.0000   0.0000   0.0000

     the spin up/dw Fermi energies are    -2.9369   -7.1715 ev

!    total energy              =     -63.71719119 Ry
     Harris-Foulkes estimate   =     -63.71719123 Ry
     estimated scf accuracy    <       0.00000010 Ry

     The total energy is the sum of the following terms:

     one-electron contribution =    -124.21492114 Ry
     hartree contribution      =      63.80982174 Ry
     xc contribution           =     -13.36634619 Ry
     ewald contribution        =      10.05425440 Ry
     smearing contrib. (-TS)   =       0.00000000 Ry

     total magnetization       =     2.00 Bohr mag/cell
     absolute magnetization    =     2.04 Bohr mag/cell

     convergence has been achieved in   6 iterations

     Forces acting on atoms (Ry/au):

     atom    1 type  1   force =    -0.00400250   -0.00000001   -0.00000001
     atom    2 type  1   force =     0.00400250    0.00000001    0.00000001
     The non-local contrib.  to forces
     atom    1 type  1   force =     4.58197186   -0.00000003   -0.00000001
     atom    2 type  1   force =    -4.58197292    0.00000001    0.00000001
     The ionic contribution  to forces
     atom    1 type  1   force =   -13.72392345    0.00000000    0.00000000
     atom    2 type  1   force =    13.72392345    0.00000000    0.00000000
     The local contribution  to forces
     atom    1 type  1   force =     9.13802511    0.00000003    0.00000002
     atom    2 type  1   force =    -9.13804035    0.00000003    0.00000001
     The core correction contribution to forces
     atom    1 type  1   force =     0.00000000    0.00000000    0.00000000
     atom    2 type  1   force =     0.00000000    0.00000000    0.00000000
     The Hubbard contrib.    to forces
     atom    1 type  1   force =     0.00000000    0.00000000    0.00000000
     atom    2 type  1   force =     0.00000000    0.00000000    0.00000000
     The SCF correction term to forces
     atom    1 type  1   force =    -0.00008344    0.00000000    0.00000000
     atom    2 type  1   force =     0.00008491    0.00000000    0.00000000

     Total force =     0.005660     Total SCF correction =     0.000119


     entering subroutine stress ...

          total   stress  (Ry/bohr**3)                   (kbar)     P=   -0.07
   0.00000079   0.00000000   0.00000000          0.12      0.00      0.00
   0.00000000  -0.00000108   0.00000000          0.00     -0.16      0.00
   0.00000000   0.00000000  -0.00000108          0.00      0.00     -0.16

     kinetic stress (kbar)    617.86      0.00      0.00
                                0.00    723.81      0.00
                                0.00      0.00    723.81

     local   stress (kbar)  -1924.65      0.00      0.00
                                0.00  -1017.71      0.00
                                0.00      0.00  -1017.71

     nonloc. stress (kbar)    186.71      0.00      0.00
                                0.00    184.84      0.00
                                0.00      0.00    184.84

     hartree stress (kbar)    675.06      0.00      0.00
                                0.00    357.96      0.00
                                0.00      0.00    357.96

     exc-cor stress (kbar)    -90.71      0.00      0.00
                                0.00    -90.71      0.00
                                0.00      0.00    -90.71

     corecor stress (kbar)      0.00      0.00      0.00
                                0.00      0.00      0.00
                                0.00      0.00      0.00

     ewald   stress (kbar)    535.86      0.00      0.00
                                0.00   -158.34      0.00
                                0.00      0.00   -158.34

     hubbard stress (kbar)      0.00      0.00      0.00
                                0.00      0.00      0.00
                                0.00      0.00      0.00

     london  stress (kbar)      0.00      0.00      0.00
                                0.00      0.00      0.00
                                0.00      0.00      0.00

     dft-nl  stress (kbar)      0.00      0.00      0.00
                                0.00      0.00      0.00
                                0.00      0.00      0.00



     Writing output data file pwscf.save
 
     init_run     :     31.50s CPU     31.50s WALL (       1 calls)
     electrons    :     78.60s CPU     78.60s WALL (       1 calls)
     forces       :      1.26s CPU      1.26s WALL (       1 calls)
     stress       :      0.77s CPU      0.77s WALL (       1 calls)

     Called by init_run:
     wfcinit      :      0.75s CPU      0.75s WALL (       1 calls)
     potinit      :      1.12s CPU      1.12s WALL (       1 calls)

     Called by electrons:
     c_bands      :     13.12s CPU     13.12s WALL (       7 calls)
     sum_band     :      2.93s CPU      2.93s WALL (       7 calls)
     v_of_rho     :      0.81s CPU      0.81s WALL (       7 calls)
     v_h          :      0.14s CPU      0.14s WALL (       7 calls)
     v_xc         :      0.67s CPU      0.67s WALL (       7 calls)
     mix_rho      :      0.27s CPU      0.27s WALL (       7 calls)

     Called by c_bands:
     init_us_2    :      0.01s CPU      0.01s WALL (      34 calls)
     cegterg      :     13.01s CPU     13.01s WALL (      14 calls)

     Called by sum_band:

     Called by *egterg:
     h_psi        :     13.16s CPU     13.16s WALL (      62 calls)
     g_psi        :      0.05s CPU      0.05s WALL (      46 calls)
     cdiaghg      :      0.19s CPU      0.19s WALL (      58 calls)
     cegterg:over :      0.09s CPU      0.09s WALL (      46 calls)
     cegterg:upda :      0.08s CPU      0.08s WALL (      46 calls)
     cegterg:last :      0.02s CPU      0.02s WALL (      16 calls)

     Called by h_psi:
     h_psi:vloc   :     13.10s CPU     13.10s WALL (      62 calls)
     h_psi:vnl    :      0.05s CPU      0.05s WALL (      62 calls)
     add_vuspsi   :      0.02s CPU      0.02s WALL (      62 calls)

     General routines
     calbec       :      0.32s CPU      0.32s WALL (      66 calls)
     fft          :      1.24s CPU      1.24s WALL (      56 calls)
     fftw         :     14.86s CPU     14.86s WALL (    1034 calls)
 
     Parallel routines
     fft_scatter  :      2.64s CPU      2.64s WALL (    1090 calls)
     EXX routines
 
     PWSCF        :  2m29.16s CPU     2m29.16s WALL

 
   This run was terminated on:  19:22:18   6Jun2016            

=------------------------------------------------------------------------------=
   JOB DONE.
=------------------------------------------------------------------------------=
