
     Program PWSCF v.5.0        starts on 27May2016 at 18:50:47 

     This program is part of the open-source Quantum ESPRESSO suite
     for quantum simulation of materials; please cite
         "P. Giannozzi et al., J. Phys.:Condens. Matter 21 395502 (2009);
          URL http://www.quantum-espresso.org", 
     in publications or presentations arising from this work. More details at
     http://www.quantum-espresso.org/quote.php

     Parallel version (MPI), running on   512 processors
     R & G space division:  proc/pool =  512

     Current dimensions of program PWSCF are:
     Max number of different atomic species (ntypx) = 10
     Max number of k-points (npk) =  40000
     Max angular momentum in pseudopotentials (lmaxx) =  3
     Reading input from dft.in

     IMPORTANT: XC functional enforced from input :
     Exchange-correlation      = LDA ( 1 1 0 0 0)
     EXX-fraction              =        0.00
     Any further DFT definition will be discarded
     Please, verify this is what you really want

               file O.BFD.upf: wavefunction(s)  0s 0p renormalized

     Subspace diagonalization in iterative solution of the eigenvalue problem:
     a serial algorithm will be used

 
     Parallelization info
     --------------------
     sticks:   dense  smooth     PW     G-vecs:    dense   smooth      PW
     Min          44      44     11                 5032     5032     625
     Max          45      45     12                 5043     5043     635
     Sum       22733   22733   5689              2578383  2578383  322453
 


     bravais-lattice index     =            0
     lattice parameter (alat)  =       1.0000  a.u.
     unit-cell volume          =    6748.3346 (a.u.)^3
     number of atoms/cell      =            2
     number of atomic types    =            1
     number of electrons       =        12.00 (up:   7.00, down:   5.00)
     number of Kohn-Sham states=           11
     kinetic-energy cutoff     =     200.0000  Ry
     charge density cutoff     =     800.0000  Ry
     convergence threshold     =      1.0E-07
     mixing beta               =       0.7000
     number of iterations used =            8  plain     mixing
     Exchange-correlation      = LDA ( 1 1 0 0 0)
     EXX-fraction              =        0.00

     celldm(1)=   1.000000  celldm(2)=   0.000000  celldm(3)=   0.000000
     celldm(4)=   0.000000  celldm(5)=   0.000000  celldm(6)=   0.000000

     crystal axes: (cart. coord. in units of alat)
               a(1) = (  18.897261   0.000000   0.000000 )  
               a(2) = (   0.000000  18.897261   0.000000 )  
               a(3) = (   0.000000   0.000000  18.897261 )  

     reciprocal axes: (cart. coord. in units 2 pi/alat)
               b(1) = (  0.052918  0.000000  0.000000 )  
               b(2) = (  0.000000  0.052918  0.000000 )  
               b(3) = (  0.000000  0.000000  0.052918 )  


     PseudoPot. # 1 for O  read from file:
     ./O.BFD.upf
     MD5 check sum: e50a3faf6d087c8e93bb07d695ababf7
     Pseudo is Norm-conserving, Zval =  6.0
     Generated by new atomic code, or converted to UPF format
     Using radial grid of 2000 points,  1 beta functions with: 
                l(1) =   0

     atomic species   valence    mass     pseudopotential
        O              6.00    15.99900     O ( 1.00)

     Starting magnetic structure 
     atomic species   magnetization
        O            0.000

     No symmetry found


                                    s                        frac. trans.

      isym =  1     identity                                     

 cryst.   s( 1) = (     1          0          0      )
                  (     0          1          0      )
                  (     0          0          1      )

 cart.    s( 1) = (  1.0000000  0.0000000  0.0000000 )
                  (  0.0000000  1.0000000  0.0000000 )
                  (  0.0000000  0.0000000  1.0000000 )


     point group C_1 (1)    
     there are  1 classes
     the character table:

       E    
A      1.00

     the symmetry operations in each class:
     E        1

   Cartesian axes

     site n.     atom                  positions (alat units)
         1           O   tau(   1) = (   8.3078030   9.4486307   9.4486307  )
         2           O   tau(   2) = (  10.5894583   9.4486307   9.4486307  )

   Crystallographic axes

     site n.     atom                  positions (cryst. coord.)
         1           O   tau(   1) = (  0.4396300  0.5000000  0.5000000  )
         2           O   tau(   2) = (  0.5603700  0.5000000  0.5000000  )

     number of k points=     2  Fermi-Dirac smearing, width (Ry)=  0.0001
                       cart. coord. in units 2pi/alat
        k(    1) = (   0.0000000   0.0000000   0.0000000), wk =   1.0000000
        k(    2) = (   0.0000000   0.0000000   0.0000000), wk =   1.0000000

                       cryst. coord.
        k(    1) = (   0.0000000   0.0000000   0.0000000), wk =   1.0000000
        k(    2) = (   0.0000000   0.0000000   0.0000000), wk =   1.0000000

     Dense  grid:  2578383 G-vectors     FFT dimensions: ( 176, 176, 176)

     Largest allocated arrays     est. size (Mb)     dimensions
        Kohn-Sham Wavefunctions         0.11 Mb     (    635,   11)
        NL pseudopotentials             0.02 Mb     (    635,    2)
        Each V/rho on FFT grid          0.95 Mb     (  30976,   2)
        Each G-vector array             0.04 Mb     (   5034)
        G-vector shells                 0.02 Mb     (   1978)
     Largest temporary arrays     est. size (Mb)     dimensions
        Auxiliary wavefunctions         0.43 Mb     (    635,   44)
        Each subspace H/S matrix        0.03 Mb     (  44,  44)
        Each <psi_i|beta_j> matrix      0.00 Mb     (      2,   11)
        Arrays for rho mixing           3.78 Mb     (  30976,   8)

     Initial potential from superposition of free atoms

     starting charge    0.95494, renormalised to   12.00000

     negative rho (up, down):  0.421E-03 0.421E-03
     Starting wfc are    8 randomized atomic wfcs

     total cpu time spent up to now is       20.1 secs

     per-process dynamical memory:    18.4 Mb

     Self-consistent Calculation

     iteration #  1     ecut=   200.00 Ry     beta=0.70
     Davidson diagonalization with overlap
     ethr =  1.00E-02,  avg # of iterations =  8.0

     Threshold (ethr) on eigenvalues was too large:
     Diagonalizing with lowered threshold

     Davidson diagonalization with overlap
     ethr =  8.76E-04,  avg # of iterations =  1.0

     negative rho (up, down):  0.111E-03 0.122E-03

     total cpu time spent up to now is       30.3 secs

     total energy              =     -63.68099743 Ry
     Harris-Foulkes estimate   =     -63.64011114 Ry
     estimated scf accuracy    <       0.10537165 Ry

     total magnetization       =     2.00 Bohr mag/cell
     absolute magnetization    =     2.00 Bohr mag/cell

     iteration #  2     ecut=   200.00 Ry     beta=0.70
     Davidson diagonalization with overlap
     ethr =  8.78E-04,  avg # of iterations =  2.0

     negative rho (up, down):  0.162E-04 0.207E-04

     total cpu time spent up to now is       38.3 secs

     total energy              =     -63.69893374 Ry
     Harris-Foulkes estimate   =     -63.69105559 Ry
     estimated scf accuracy    <       0.00882522 Ry

     total magnetization       =     2.00 Bohr mag/cell
     absolute magnetization    =     2.02 Bohr mag/cell

     iteration #  3     ecut=   200.00 Ry     beta=0.70
     Davidson diagonalization with overlap
     ethr =  7.35E-05,  avg # of iterations =  3.5

     negative rho (up, down):  0.118E-05 0.179E-05

     total cpu time spent up to now is       46.7 secs

     total energy              =     -63.70031081 Ry
     Harris-Foulkes estimate   =     -63.69975085 Ry
     estimated scf accuracy    <       0.00085049 Ry

     total magnetization       =     2.00 Bohr mag/cell
     absolute magnetization    =     2.03 Bohr mag/cell

     iteration #  4     ecut=   200.00 Ry     beta=0.70
     Davidson diagonalization with overlap
     ethr =  7.09E-06,  avg # of iterations =  4.0

     negative rho (up, down):  0.721E-06 0.113E-05

     total cpu time spent up to now is       55.0 secs

     total energy              =     -63.70047697 Ry
     Harris-Foulkes estimate   =     -63.70048814 Ry
     estimated scf accuracy    <       0.00004950 Ry

     total magnetization       =     2.00 Bohr mag/cell
     absolute magnetization    =     2.04 Bohr mag/cell

     iteration #  5     ecut=   200.00 Ry     beta=0.70
     Davidson diagonalization with overlap
     ethr =  4.13E-07,  avg # of iterations =  1.5

     negative rho (up, down):  0.101E-07 0.264E-07

     total cpu time spent up to now is       63.1 secs

     total energy              =     -63.70049212 Ry
     Harris-Foulkes estimate   =     -63.70048808 Ry
     estimated scf accuracy    <       0.00000237 Ry

     total magnetization       =     2.00 Bohr mag/cell
     absolute magnetization    =     2.04 Bohr mag/cell

     iteration #  6     ecut=   200.00 Ry     beta=0.70
     Davidson diagonalization with overlap
     ethr =  1.98E-08,  avg # of iterations =  2.0

     total cpu time spent up to now is       64.5 secs

     End of self-consistent calculation

 ------ SPIN UP ------------


          k = 0.0000 0.0000 0.0000 (322453 PWs)   bands (ev):

   -32.5929 -20.0595 -13.6055 -13.5495 -13.5495  -6.6940  -6.6940  -0.1939
     1.0146   1.2463   1.2463

     occupation numbers 
     1.0000   1.0000   1.0000   1.0000   1.0000   1.0000   1.0000   0.0000
     0.0000   0.0000   0.0000

 ------ SPIN DOWN ----------


          k = 0.0000 0.0000 0.0000 (322453 PWs)   bands (ev):

   -31.2444 -18.2679 -12.4115 -11.7650 -11.7650  -4.5437  -4.5437  -0.1484
     1.1532   1.2924   1.2924

     occupation numbers 
     1.0000   1.0000   1.0000   1.0000   1.0000   0.0000   0.0000   0.0000
     0.0000   0.0000   0.0000

     the spin up/dw Fermi energies are    -2.9412   -7.1776 ev

!    total energy              =     -63.70049290 Ry
     Harris-Foulkes estimate   =     -63.70049291 Ry
     estimated scf accuracy    <       0.00000006 Ry

     The total energy is the sum of the following terms:

     one-electron contribution =    -124.18173149 Ry
     hartree contribution      =      63.79044622 Ry
     xc contribution           =     -13.36346203 Ry
     ewald contribution        =      10.05425440 Ry
     smearing contrib. (-TS)   =       0.00000000 Ry

     total magnetization       =     2.00 Bohr mag/cell
     absolute magnetization    =     2.04 Bohr mag/cell

     convergence has been achieved in   6 iterations

     Forces acting on atoms (Ry/au):

     atom    1 type  1   force =    -0.00560696    0.00000000   -0.00000001
     atom    2 type  1   force =     0.00560696    0.00000000    0.00000001
     The non-local contrib.  to forces
     atom    1 type  1   force =     4.57220155    0.00000000   -0.00000003
     atom    2 type  1   force =    -4.57220656   -0.00000006    0.00000003
     The ionic contribution  to forces
     atom    1 type  1   force =   -13.72392345    0.00000000    0.00000000
     atom    2 type  1   force =    13.72392345    0.00000000    0.00000000
     The local contribution  to forces
     atom    1 type  1   force =     9.14615866    0.00000000    0.00000003
     atom    2 type  1   force =    -9.14618103    0.00000006   -0.00000002
     The core correction contribution to forces
     atom    1 type  1   force =     0.00000000    0.00000000    0.00000000
     atom    2 type  1   force =     0.00000000    0.00000000    0.00000000
     The Hubbard contrib.    to forces
     atom    1 type  1   force =     0.00000000    0.00000000    0.00000000
     atom    2 type  1   force =     0.00000000    0.00000000    0.00000000
     The SCF correction term to forces
     atom    1 type  1   force =    -0.00005622    0.00000000    0.00000000
     atom    2 type  1   force =     0.00005861    0.00000000    0.00000000

     Total force =     0.007929     Total SCF correction =     0.000081


     entering subroutine stress ...

          total   stress  (Ry/bohr**3)                   (kbar)     P=   -1.27
  -0.00000623   0.00000000   0.00000000         -0.92      0.00      0.00
   0.00000000  -0.00000986   0.00000000          0.00     -1.45      0.00
   0.00000000   0.00000000  -0.00000986          0.00      0.00     -1.45

     kinetic stress (kbar)    616.62      0.00      0.00
                                0.00    722.31      0.00
                                0.00      0.00    722.31

     local   stress (kbar)  -1924.34      0.00      0.00
                                0.00  -1017.55      0.00
                                0.00      0.00  -1017.55

     nonloc. stress (kbar)    186.82      0.00      0.00
                                0.00    184.95      0.00
                                0.00      0.00    184.95

     hartree stress (kbar)    674.82      0.00      0.00
                                0.00    357.87      0.00
                                0.00      0.00    357.87

     exc-cor stress (kbar)    -90.69      0.00      0.00
                                0.00    -90.69      0.00
                                0.00      0.00    -90.69

     corecor stress (kbar)      0.00      0.00      0.00
                                0.00      0.00      0.00
                                0.00      0.00      0.00

     ewald   stress (kbar)    535.86      0.00      0.00
                                0.00   -158.34      0.00
                                0.00      0.00   -158.34

     hubbard stress (kbar)      0.00      0.00      0.00
                                0.00      0.00      0.00
                                0.00      0.00      0.00

     london  stress (kbar)      0.00      0.00      0.00
                                0.00      0.00      0.00
                                0.00      0.00      0.00

     dft-nl  stress (kbar)      0.00      0.00      0.00
                                0.00      0.00      0.00
                                0.00      0.00      0.00



     Writing output data file pwscf.save
 
     init_run     :     18.56s CPU     18.56s WALL (       1 calls)
     electrons    :     44.46s CPU     44.46s WALL (       1 calls)
     forces       :      0.86s CPU      0.86s WALL (       1 calls)
     stress       :      0.53s CPU      0.53s WALL (       1 calls)

     Called by init_run:
     wfcinit      :      0.58s CPU      0.58s WALL (       1 calls)
     potinit      :      0.67s CPU      0.67s WALL (       1 calls)

     Called by electrons:
     c_bands      :      8.25s CPU      8.25s WALL (       7 calls)
     sum_band     :      1.85s CPU      1.85s WALL (       7 calls)
     v_of_rho     :      0.56s CPU      0.56s WALL (       7 calls)
     v_h          :      0.09s CPU      0.09s WALL (       7 calls)
     v_xc         :      0.47s CPU      0.47s WALL (       7 calls)
     mix_rho      :      0.15s CPU      0.15s WALL (       7 calls)

     Called by c_bands:
     init_us_2    :      0.01s CPU      0.01s WALL (      34 calls)
     cegterg      :      8.17s CPU      8.17s WALL (      14 calls)

     Called by sum_band:

     Called by *egterg:
     h_psi        :      8.36s CPU      8.36s WALL (      60 calls)
     g_psi        :      0.03s CPU      0.03s WALL (      44 calls)
     cdiaghg      :      0.18s CPU      0.18s WALL (      56 calls)
     cegterg:over :      0.05s CPU      0.05s WALL (      44 calls)
     cegterg:upda :      0.04s CPU      0.04s WALL (      44 calls)
     cegterg:last :      0.01s CPU      0.01s WALL (      16 calls)

     Called by h_psi:
     h_psi:vloc   :      8.32s CPU      8.32s WALL (      60 calls)
     h_psi:vnl    :      0.03s CPU      0.03s WALL (      60 calls)
     add_vuspsi   :      0.01s CPU      0.01s WALL (      60 calls)

     General routines
     calbec       :      0.31s CPU      0.31s WALL (      64 calls)
     fft          :      0.83s CPU      0.83s WALL (      56 calls)
     fftw         :      9.41s CPU      9.41s WALL (    1036 calls)
 
     Parallel routines
     fft_scatter  :      1.91s CPU      1.91s WALL (    1092 calls)
     EXX routines
 
     PWSCF        :  1m31.18s CPU     1m31.18s WALL

 
   This run was terminated on:  18:52:18  27May2016            

=------------------------------------------------------------------------------=
   JOB DONE.
=------------------------------------------------------------------------------=
