<PP_INFO>
Generated using ppconvert
Author:  Kenneth P. Esler  Generation date: 05/27/16
<PP_INFO/>
<PP_HEADER>
   0                  Version Number
   H                  Element
  NC                  Norm - Conserving pseudopotential
   F                  Nonlinear Core Correction
  SLA   PW  PBE  PBE  Exchange-Corelation functional
  1.0000000000        Z valence
  -0.5000100000       Total energy
  0.000000  0.000000  Suggested cutoff for wfc and rho
  2                   Max angular momentum component
  1405                Number of points in mesh
  3   2               Number of Wavefunctions, Number of Projectors
 WaveFunctions      nl   l   occ    
                    1s   0   1.0000
                    2p   1   0.0000
                    3d   2   0.0000
<PP_HEADER/>
<PP_MESH>
  <PP_R>
  0.00000000000e+00 1.00669639532567997e-08 2.02690529241618991e-08 3.06080806442911024e-08
  4.10858851902e-08 5.17043293104347031e-08 6.24653007562189056e-08 7.33707126175319012e-08
  8.44225036630e-08 9.56226386845316011e-08 1.06973108846792002e-07 1.18475932041020005e-07
  1.30133153244e-07 1.41946844880887012e-07 1.53919107195070001e-07 1.66052068620127001e-07
  1.78347886159e-07 1.90808745766992992e-07 2.03436862741053005e-07 2.16234482112947004e-07
  2.29203879049e-07 2.42347359253076979e-07 2.55667259379358021e-07 2.69165947444881010e-07
  2.82845823252e-07 2.96709318814566997e-07 3.10758898790625990e-07 3.24997060920255016e-07
  3.39426336470e-07 3.54049290681735992e-07 3.68868523230951986e-07 3.83886668686685020e-07
  3.99106396981e-07 4.14530413883501007e-07 4.30161461482217009e-07 4.46002318671236012e-07
  4.62055801645e-07 4.78324764397325984e-07 4.94812099232100010e-07 5.11520737274163962e-07
  5.28453648992e-07 5.45613844725814957e-07 5.63004375222075032e-07 5.80628332176514006e-07
  5.98488848783e-07 6.16589100292881026e-07 6.34932304574963981e-07 6.53521722692105954e-07
  6.72360659479e-07 6.91452464128715979e-07 7.10800530791006008e-07 7.30408299172833960e-07
  7.50279255151e-07 7.70416931393237981e-07 7.90824907982914974e-07 8.11506813058840016e-07
  8.32466323459e-07 8.53707165372612042e-07 8.75233115006459956e-07 8.97047999252340005e-07
  9.19155696369e-07 9.41560136672980950e-07 9.64265303233852085e-07 9.87275232585817091e-07
  1.01059401544e-06 1.03422579742997009e-06 1.05817477981290999e-06 1.08244522025232998e-06
  1.10704143356e-06 1.13196779245222007e-06 1.15722872835596002e-06 1.18282873216792996e-06
  1.20877235507e-06 1.23506420932212993e-06 1.26170896910899996e-06 1.28871137134428004e-06
  1.31607621653e-06 1.34380836958810993e-06 1.37191276076366994e-06 1.40039438646309000e-06
  1.42925831016e-06 1.45850966329913995e-06 1.48815364619360991e-06 1.51819552896438005e-06
  1.54864065247e-06 1.57949442925629003e-06 1.61076234452114008e-06 1.64244995708713999e-06
  1.67456290039e-06 1.70710688348528001e-06 1.74008769205241006e-06 1.77351118943419002e-06
  1.80738331767e-06 1.84171009857199995e-06 1.87649763475815997e-06 1.91175211077472998e-06
  1.94747979418e-06 1.98368703664712019e-06 2.02038027512365991e-06 2.05756603294563989e-06
  2.09525092101e-06 2.13344163895878014e-06 2.17214497634640981e-06 2.21136781387050014e-06
  2.25111712458e-06 2.29139997513349981e-06 2.33222352702298021e-06 2.37359503787954008e-06
  2.41552186275e-06 2.45801145539478020e-06 2.50107136963889988e-06 2.54470926068906013e-06
  2.58893288651e-06 2.63375010918857014e-06 2.67916889635661013e-06 2.72519732258228009e-06
  2.77184357082e-06 2.81911593385338985e-06 2.86702281578817993e-06 2.91557273352771017e-06
  2.96477431830e-06 3.01463631717203010e-06 3.06516759464149010e-06 3.11637713417600984e-06
  3.16827403983e-06 3.22086753785251984e-06 3.27416697834147984e-06 3.32818183689194002e-06
  3.38292171629e-06 3.43839634820704012e-06 3.49461559495284006e-06 3.55158945120593994e-06
  3.60932804580e-06 3.66784164353195006e-06 3.72714064696745998e-06 3.78723559830969991e-06
  3.84813718126e-06 3.90985622293841028e-06 3.97240369576999004e-06 4.03579071947403974e-06
  4.10002856302e-06 4.16512864664335042e-06 4.23110254385853019e-06 4.29796198353386033e-06
  4.36571885197e-06 4.43438519500507037e-06 4.50397322017561983e-06 4.57449529886746982e-06
  4.64596396852e-06 4.71839193487705960e-06 4.79179207419797982e-06 4.86617743559451007e-06
  4.94156124333e-06 5.01795689915924018e-06 5.09537798474294036e-06 5.17383826403036975e-06
  5.25335168572e-06 5.33393238574743959e-06 5.41559468977593976e-06 5.49835311576576016e-06
  5.58222237654e-06 5.66721738242216999e-06 5.75335324384757987e-06 5.84064527408905974e-06
  5.92910899196e-06 6.01876012457557970e-06 6.10961461015204006e-06 6.20168860083689015e-06
  6.29499846558e-06 6.38956079305375966e-06 6.48539239458143976e-06 6.58251030714666999e-06
  6.68093179641e-06 6.78067435979003016e-06 6.88175572955499011e-06 6.98419387599430984e-06
  7.08800701060e-06 7.19321358932532001e-06 7.29983231582767018e-06 7.40788214483192979e-06
  7.51738228548e-06 7.62835220475550038e-06 7.74081163093278965e-06 7.85478055709611054e-06
  7.97027924469e-06 8.08732822711289050e-06 8.20594831338681019e-06 8.32616059183760959e-06
  8.44798643385e-06 8.57144749768314015e-06 8.69656573228495002e-06 8.82336338123025926e-06
  8.95186298666e-06 9.08208739327877988e-06 9.21405975244332954e-06 9.34780352625125027e-06
  9.48334249173e-06 9.62070074503975942e-06 9.75990270580018981e-06 9.90097312138888972e-06
  1.00439370714e-05 1.01888199719105997e-05 1.03356475803751001e-05 1.04844459998285994e-05
  1.06352416837e-05 1.07880614405542001e-05 1.09429324387042003e-05 1.10998822111952997e-05
  1.12589386606e-05 1.14201300641070005e-05 1.15834850783227996e-05 1.17490327445913999e-05
  1.19168024940e-05 1.20868241528593992e-05 1.22591279475541992e-05 1.24337445103693004e-05
  1.26107048847e-05 1.27900405306618002e-05 1.29717833305921992e-05 1.31559655948101000e-05
  1.33426200673e-05 1.35317799316138006e-05 1.37234788166271002e-05 1.39177508026607001e-05
  1.41146304275e-05 1.43141526923907007e-05 1.45163530685782999e-05 1.47212675032969998e-05
  1.49289324263e-05 1.51393847564013001e-05 1.53526619078440984e-05 1.55688017971478009e-05
  1.57878428498e-05 1.60098240068615016e-05 1.62347847323815003e-05 1.64627650199210988e-05
  1.66938053999e-05 1.69279469468010992e-05 1.71652312863757995e-05 1.74057006031413993e-05
  1.76493976478e-05 1.78963657450085008e-05 1.81466488007607991e-05 1.84002913105136008e-05
  1.86573383669e-05 1.89178356679615012e-05 1.91818295249053984e-05 1.94493668707050016e-05
  1.97204952683e-05 1.99952629188874984e-05 2.02737186708945986e-05 2.05559120282590015e-05
  2.08418931594e-05 2.11317129062567006e-05 2.14254227930070989e-05 2.17230750355476997e-05
  2.20247225506e-05 2.23304189652332997e-05 2.26402186262321015e-05 2.29541766099241991e-05
  2.32723487319e-05 2.35947915568978017e-05 2.39215624089683008e-05 2.42527193815570984e-05
  2.45883213479e-05 2.49284279714141017e-05 2.52730997164334985e-05 2.56223978588298993e-05
  2.59763844970e-05 2.63351225627468010e-05 2.66986758327583997e-05 2.70671089396557991e-05
  2.74404873836e-05 2.78188775440492004e-05 2.82023466912772002e-05 2.85909629986149012e-05
  2.89847955544e-05 2.93839143744346006e-05 2.97883904141385994e-05 3.01982955814579993e-05
  3.06137027495e-05 3.10346857695290007e-05 3.14613194840722025e-05 3.18936797402495010e-05
  3.23318434032e-05 3.27758883699756019e-05 3.32258935829374974e-05 3.36819390442429976e-05
  3.41441058298e-05 3.46124761039353967e-05 3.50871331335836977e-05 3.55681613035088010e-05
  3.60556461311e-05 3.65496742816009032e-05 3.70503335835491022e-05 3.75577130443580009e-05
  3.80719028662e-05 3.85929944618242009e-05 3.91210804712380990e-05 3.96562547777465019e-05
  4.01986125249e-05 4.07482501331562973e-05 4.13052653174413010e-05 4.18697571041016969e-05
  4.24418258487e-05 4.30215732539123029e-05 4.36091023874116005e-05 4.42045177003888028e-05
  4.48079250460e-05 4.54194316983213029e-05 4.60391463711871002e-05 4.66671792377502985e-05
  4.73036419500e-05 4.79486476583963032e-05 4.86023110324621012e-05 4.92647482806937972e-05
  4.99360771715e-05 5.06164170538805030e-05 5.13058888790662968e-05 5.20046152216000967e-05
  5.27127203013e-05 5.34303300054939009e-05 5.41575719110150975e-05 5.48945753072671981e-05
  5.56414712190e-05 5.63983924297278984e-05 5.71654735051634020e-05 5.79428508173131026e-05
  5.87306625686e-05 5.95290488166278018e-05 6.03381514987260032e-05 6.11581144575376991e-05
  6.19890834664e-05 6.28312062553709050e-05 6.36846325373408061e-05 6.45495140348005054e-05
  6.54260045067e-05 6.63142597759916951e-05 6.72144377569474012e-05 6.81266984836174938e-05
  6.90512041381e-05 6.99881190793587949e-05 7.09376098725495992e-05 7.18998453185257051e-05
  7.28749964839e-05 7.38632367314503004e-05 7.48647417509320048e-05 7.58796895903206064e-05
  7.69082606875e-05 7.79506379021450036e-05 7.90070065486239996e-05 8.00775544285502969e-05
  8.11624718644e-05 8.22619517331407062e-05 8.33761895008568020e-05 8.45053832571633965e-05
  8.56497337506e-05 8.68094444242422958e-05 8.79847214519570030e-05 8.91757737749692005e-05
  9.03828131391e-05 9.16060541321572970e-05 9.28457142225752976e-05 9.41020137975859998e-05
  9.53751762026e-05 9.66654277810880967e-05 9.79729979143725041e-05 9.92981190628543941e-05
  1.00641026807e-04 1.02001959889851999e-04 1.03381160258301995e-04 1.04778873107276994e-04
  1.06195346923e-04 1.07630833525994995e-04 1.09085588118435005e-04 1.10559869326931997e-04
  1.12053939250e-04 1.13568063503425006e-04 1.15102511269417993e-04 1.16657555342543007e-04
  1.18233472179e-04 1.19830541946454994e-04 1.21449048572106998e-04 1.23089279794903988e-04
  1.24751527216e-04 1.26436086349907998e-04 1.28143256678762008e-04 1.29873341703833003e-04
  1.31626649000e-04 1.33403490272001013e-04 1.35204181406363010e-04 1.37029042531046006e-04
  1.38878398071e-04 1.40752576804248987e-04 1.42651911924224000e-04 1.44576741095116989e-04
  1.46527406514e-04 1.48504254970521001e-04 1.50507637910064995e-04 1.52537911494726004e-04
  1.54595436667e-04 1.56680579215686994e-04 1.58793709837160008e-04 1.60935204205026007e-04
  1.63105443035e-04 1.65304812153140002e-04 1.67533702564086996e-04 1.69792510520931997e-04
  1.72081637595e-04 1.74401490749688987e-04 1.76752482408003997e-04 1.79135030530691011e-04
  1.81549558688e-04 1.83996496136145993e-04 1.86476277892269995e-04 1.88989344813129007e-04
  1.91536143673e-04 1.94117127242212994e-04 1.96732754369709006e-04 1.99383490062548998e-04
  2.02069805570e-04 2.04792178465182005e-04 2.07551092733826008e-04 2.10347038856460012e-04
  2.13180513898e-04 2.16052021593414012e-04 2.18962072441912991e-04 2.21911183793069993e-04
  2.24899879941e-04 2.27928692217681006e-04 2.30998159086259004e-04 2.34108826237932011e-04
  2.37261246688e-04 2.40455980876229998e-04 2.43693596762618013e-04 2.46974669932235999e-04
  2.50299783696e-04 2.53669529192872018e-04 2.57084505498724998e-04 2.60545319729073017e-04
  2.64052587149e-04 2.67606931281638976e-04 2.71208984020063996e-04 2.74859385738590015e-04
  2.78558785407e-04 2.82307840706497995e-04 2.86107218145271016e-04 2.89957593178336991e-04
  2.93859650327e-04 2.97814083300454023e-04 3.01821595119550993e-04 3.05882898241347997e-04
  3.09998714686e-04 3.14169776165006012e-04 3.18396824211433023e-04 3.22680610311610976e-04
  3.27021896039e-04 3.31421453188544021e-04 3.35880063915943979e-04 3.40398520874643008e-04
  3.44977627358e-04 3.49618197440787026e-04 3.54321056126125989e-04 3.59087039489948000e-04
  3.63916994831e-04 3.68811780819941991e-04 3.73772267654629009e-04 3.78799337212190981e-04
  3.83893883207e-04 3.89056811349904020e-04 3.94289039508028012e-04 3.99591497869170021e-04
  4.04965129107e-04 4.10410888546568025e-04 4.15929744338551998e-04 4.21522677626963026e-04
  4.27190682726e-04 4.32934767295293978e-04 4.38755952521212007e-04 4.44655273296241992e-04
  4.50633778404e-04 4.56692530705765979e-04 4.62832607328834023e-04 4.69055099858616020e-04
  4.75361114532e-04 4.81751772436050008e-04 4.88228209703377982e-04 4.94791577718060958e-04
  5.01443043318e-04 5.08183789004581013e-04 5.15015013149253023e-04 5.21937930210218952e-04
  5.28953770947e-04 5.36063782637221015e-04 5.43269229303114994e-04 5.50571391931479050e-04
  5.57971568704e-04 5.65471075226520983e-04 5.73071244765027991e-04 5.80773428480577006e-04
  5.88578995671e-04 5.96489334011927994e-04 6.04505849807882023e-04 6.12629968237899964e-04
  6.20863133611e-04 6.29206809623013047e-04 6.37662479615791955e-04 6.46231646841926959e-04
  6.54915834731e-04 6.63716587162993966e-04 6.72635468737812982e-04 6.81674065058386039e-04
  6.90833983010e-04 7.00116851046906968e-04 7.09524319480935961e-04 7.19058060775787031e-04
  7.28719769844e-04 7.38511164347924014e-04 7.48433985005968997e-04 7.58489995901185949e-04
  7.68680984795e-04 7.79008763446600947e-04 7.89475167931739030e-04 8.00082058972439048e-04
  8.10831322266e-04 8.21724868821343017e-04 8.32764635297187955e-04 8.43952584347920014e-04
  8.55290704972e-04 8.66781012864352982e-04 8.78425550777470025e-04 8.90226388881817953e-04
  9.02185625135e-04 9.14305385655717995e-04 9.26587825099223954e-04 9.39035127042910978e-04
  9.51649504373e-04 9.64433199679408967e-04 9.77388485652024063e-04 9.90517665487161041e-04
  1.00382307330e-03 1.01730707451884992e-03 1.03097206634757002e-03 1.04482047814983994e-03
  1.05885477190e-03 1.07307744262659008e-03 1.08749101883583990e-03 1.10209806298128005e-03
  1.11690117191e-03 1.13190297732244992e-03 1.14710614624811990e-03 1.16251338151186008e-03
  1.17812742222e-03 1.19395104423798996e-03 1.20998706070101002e-03 1.22623832249693990e-03
  1.24270771878e-03 1.25939817749163999e-03 1.27631266586305993e-03 1.29345419096079002e-03
  1.31082580021e-03 1.32843058194912996e-03 1.34627166595693002e-03 1.36435222403085993e-03
  1.38267547054e-03 1.40124466299855000e-03 1.42006310264531006e-03 1.43913413503017010e-03
  1.45846115061e-03 1.47804758534695008e-03 1.49789692132809007e-03 1.51801268737564990e-03
  1.53839845968e-03 1.55905786242852007e-03 1.57999456846195994e-03 1.60121229991530990e-03
  1.62271482889e-03 1.64450597810129992e-03 1.66658962160187002e-03 1.68896968542653998e-03
  1.71165014831e-03 1.73463504240109001e-03 1.75792845395691998e-03 1.78153452409206010e-03
  1.80545744950e-03 1.82970148321837003e-03 1.85427093535136004e-03 1.87917017386966009e-03
  1.90440362537e-03 1.92997577586614000e-03 1.95589117158517008e-03 1.98215441977691014e-03
  2.00877018953e-03 2.03574321261425998e-03 2.06307828429750989e-03 2.09078026422248979e-03
  2.11885407726e-03 2.14730471437984006e-03 2.17613723355221996e-03 2.20535676063285998e-03
  2.23496849028e-03 2.26497768688302013e-03 2.29538968548535002e-03 2.32620989274590984e-03
  2.35744378789e-03 2.38909692370387018e-03 2.42117492748351003e-03 2.45368350207346994e-03
  2.48662842686e-03 2.52001555880995015e-03 2.55385083349682004e-03 2.58814026617118021e-03
  2.62288995282e-03 2.65810607126434981e-03 2.69379488223277013e-03 2.72996273049925988e-03
  2.76661604600e-03 2.80376134497281994e-03 2.84140523112795008e-03 2.87955439680971995e-03
  2.91821562419e-03 2.95739578648523006e-03 2.99710184915326014e-03 3.03734087115676990e-03
  3.07812000621e-03 3.11944650403128991e-03 3.16132771167550002e-03 3.20377107479662008e-03
  3.24678413899e-03 3.29037455114546996e-03 3.33455006077488982e-03 3.37931852142171014e-03
  3.42468789204e-03 3.47066623841903003e-03 3.51726173460425008e-03 3.56448266436344002e-03
  3.61233742265e-03 3.66083451711136021e-03 3.70998256957211009e-03 3.75979031759619007e-03
  3.81026661603e-03 3.86142043855724993e-03 3.91326087933898011e-03 3.96579715458559006e-03
  4.01903860422e-03 4.07299469352223002e-03 4.12767501483483987e-03 4.18308928924559977e-03
  4.23924736833e-03 4.29615923588548033e-03 4.35383500973625034e-03 4.41228494350212001e-03
  4.47151942844e-03 4.53154899527014998e-03 4.59238431608450029e-03 4.65403620620782020e-03
  4.71651562614e-03 4.77983368349352983e-03 4.84400163498320980e-03 4.90903088841236016e-03
  4.97493300471e-03 5.04171969997671988e-03 5.10940284758345988e-03 5.17799448026646028e-03
  5.24750679227e-03 5.31795214153478035e-03 5.38934305185070038e-03 5.46169221512760993e-03
  5.53501249363e-03 5.60931692226573041e-03 5.68461871090814985e-03 5.76093124673972973e-03
  5.83826809663e-03 5.91664300956949024e-03 5.99606991906893958e-03 6.07656294568153024e-03
  6.15813639949e-03 6.24080478265847966e-03 6.32458279200421962e-03 6.40948532161684029e-03
  6.49552746550e-03 6.58272452027040995e-03 6.67109198784741030e-03 6.76064557823871995e-03
  6.85140121232e-03 6.94337502466074990e-03 7.03658336640762983e-03 7.13104280817652980e-03
  7.22677014301e-03 7.32378238934065957e-03 7.42209679405793007e-03 7.52173083553304023e-03
  7.62270222675e-03 7.72502891843492023e-03 7.82872910227853935e-03 7.93382121413909944e-03
  8.04032393734e-03 8.14825620596566075e-03 8.25763720827273930e-03 8.36848639005637052e-03
  8.48082345813e-03 8.59466838382287948e-03 8.71004140653369036e-03 8.82696303732555948e-03
  8.94545406257e-03 9.06553554766272029e-03 9.18722884072706997e-03 9.31055557645091986e-03
  9.43553767991e-03 9.56219737048040995e-03 9.69055716576776999e-03 9.82063988563140929e-03
  9.95246865623e-03 1.00860669141390000e-02 1.02214584105092994e-02 1.03586672152977000e-02
  1.04977177215e-02 1.06386346496981001e-02 1.07814430520358998e-02 1.09261683170918007e-02
  1.10728361742e-02 1.12214726979812992e-02 1.13721043131493008e-02 1.15247577990374994e-02
  1.16794602944e-02 1.18362393024462002e-02 1.19951226952766006e-02 1.21561387192915000e-02
  1.23193160000e-02 1.24846835470842007e-02 1.26522707596965003e-02 1.28221074315467993e-02
  1.29942237563e-02 1.31686503327721003e-02 1.33454181706867993e-02 1.35245586958713995e-02
  1.37061037560e-02 1.38900856262343993e-02 1.40765370149408993e-02 1.42654910695262996e-02
  1.44569813823e-02 1.46510419965491002e-02 1.48477074123889996e-02 1.50470125930982999e-02
  1.52489929712e-02 1.54536844549512005e-02 1.56611234343859013e-02 1.58713467881251014e-02
  1.60843918898e-02 1.63002966145463987e-02 1.65190993461050012e-02 1.67408389832790008e-02
  1.69655549470e-02 1.71932871874612009e-02 1.74240761908973987e-02 1.76579629871046993e-02
  1.78949891566e-02 1.81351968379157014e-02 1.83786287353496988e-02 1.86253281262989991e-02
  1.88753388691e-02 1.91287054107143993e-02 1.93854727948012014e-02 1.96456866695545983e-02
  1.99093932959e-02 2.01766395557231998e-02 2.04474729601609000e-02 2.07219416580915992e-02
  2.10000944447e-02 2.12819807700235994e-02 2.15676507480084996e-02 2.18571551651546986e-02
  2.21505454897e-02 2.24478738806263983e-02 2.27491931971684005e-02 2.30545570079744994e-02
  2.33640196007e-02 2.36776359918777005e-02 2.39954619362130993e-02 2.43175539369819005e-02
  2.46439692558e-02 2.49747659230146017e-02 2.53100027476958998e-02 2.56497393284171003e-02
  2.59940360637e-02 2.63429541627215012e-02 2.66965556563233015e-02 2.70549034079116991e-02
  2.74180611247e-02 2.77860933690086999e-02 2.81590655697694994e-02 2.85370440341311017e-02
  2.89200959593e-02 2.93082894442866990e-02 2.97016935024069992e-02 3.01003780731568006e-02
  3.05044140348e-02 3.09138732171458999e-02 3.13288284138866016e-02 3.17493533959710000e-02
  3.21755229245e-02 3.26074127640784001e-02 3.30450996962489002e-02 3.34886615331781018e-02
  3.39381771315e-02 3.43937264061981995e-02 3.48553903450947028e-02 3.53232510229663024e-02
  3.57973916163e-02 3.62778964179365018e-02 3.67648508522862016e-02 3.72583414902859997e-02
  3.77584560649e-02 3.82652834867163033e-02 3.87789138597096003e-02 3.92994384973031005e-02
  3.98269499386e-02 4.03615419647449028e-02 4.09033096157847970e-02 4.14523492073766986e-02
  4.20087583480e-02 4.25726359563165999e-02 4.31440822787036993e-02 4.37231989071290988e-02
  4.43100887972e-02 4.49048562863983008e-02 4.55076071127773971e-02 4.61184484336124023e-02
  4.67374888445e-02 4.73648383987735969e-02 4.80006086268206025e-02 4.86449125561585968e-02
  4.92978647314e-02 4.99595812346676008e-02 5.06301797061771003e-02 5.13097793652063996e-02
  5.19985010313e-02 5.26964671455665973e-02 5.34038017928216979e-02 5.41206307232727016e-02
  5.48470813751e-02 5.55832828968843007e-02 5.63293661709503984e-02 5.70854638362513975e-02
  5.78517103121e-02 5.86282418222340979e-02 5.94151964186210996e-02 6.02127140064143002e-02
  6.10209363686e-02 6.18400071913383989e-02 6.26700720893215019e-02 6.35112786318471068e-02
  6.43637763690e-02 6.52277168580601974e-02 6.61032536908418011e-02 6.69905425206041016e-02
  6.78897410899e-02 6.88010092586816002e-02 6.97245090325187000e-02 7.06604045916013057e-02
  7.16088623198e-02 7.25700508344006012e-02 7.35441410158124975e-02 7.45313060382157000e-02
  7.55317214002e-02 7.65455649560625034e-02 7.75730169472856057e-02 7.86142600347212034e-02
  7.96694793310e-02 8.07388624334243049e-02 8.18225994573806986e-02 8.29208830700768063e-02
  8.40339085248e-02 8.51618736957505951e-02 8.63049791129639060e-02 8.74634279982168944e-02
  8.86374263010e-02 8.98271827353023938e-02 9.10329088164248956e-02 9.22548188988756013e-02
  9.34931302143e-02 9.47480629102890048e-02 9.60198400891980053e-02 9.73086878481290996e-02
  9.86148353190e-02 9.99385147091480935e-02 1.01279961342937000e-01 1.02639413703269997e-01
  1.04017113474e-01 1.05413305583598002e-01 1.06828238247234003e-01 1.08262163012365006e-01
  1.09715334803e-01 1.11188011963792993e-01 1.12680456308722005e-01 1.14192933164880994e-01
  1.15725711421e-01 1.17279063575113002e-01 1.18853265782720999e-01 1.20448597906166993e-01
  1.22065343564e-01 1.23703790182687998e-01 1.25364229045185988e-01 1.27046955345250012e-01
  1.28752268239e-01 1.30480470896632006e-01 1.32231870559755993e-01 1.34006778592583004e-01
  1.35805510539e-01 1.37628386178288986e-01 1.39475729582055008e-01 1.41347869171761009e-01
  1.43245137777e-01 1.45167872695426997e-01 1.47116415751186003e-01 1.49091113357216004e-01
  1.51092316576e-01 1.53120381182481002e-01 1.55175667726609012e-01 1.57258541598142010e-01
  1.59369373091e-01 1.61508537470434005e-01 1.63676415037209005e-01 1.65873391197742998e-01
  1.68099856531e-01 1.70356206859992004e-01 1.72642843318521005e-01 1.74960172426117999e-01
  1.77308606159e-01 1.79688562021205006e-01 1.82100463123742007e-01 1.84544738254891011e-01
  1.87021821959e-01 1.89532154612696013e-01 1.92076182504284987e-01 1.94654357911981990e-01
  1.97267139185e-01 1.99914990824283989e-01 2.02598383566372997e-01 2.05317794465805004e-01
  2.08073706981e-01 2.10866611057923009e-01 2.13697003221508003e-01 2.16565386659605008e-01
  2.19472271315e-01 2.22418173973651989e-01 2.25403618360537988e-01 2.28429135228794988e-01
  2.31495262456e-01 2.34602545139677987e-01 2.37751535693660004e-01 2.40942793946836986e-01
  2.44176887242e-01 2.47454390538828006e-01 2.50775886511964974e-01 2.54141965658744973e-01
  2.57553226402e-01 2.61010275197382013e-01 2.64513726640134006e-01 2.68064203575402005e-01
  2.71662337208e-01 2.75308767216912997e-01 2.79004141864660993e-01 2.82749118116906006e-01
  2.86544361757e-01 2.90390547505120999e-01 2.94288359137553024e-01 2.98238489608918023e-01
  3.02241641175e-01 3.06298525517844977e-01 3.10409863871906999e-01 3.14576387152649017e-01
  3.18798836086e-01 3.23077961341553976e-01 3.27414523663073997e-01 3.31809294006690014e-01
  3.36263053676e-01 3.40776594463676974e-01 3.45350718787414024e-01 3.49986239837397017e-01
  3.54683981718e-01 3.59444779597106023e-01 3.64269479849924027e-01 3.69158940214115994e-01
  3.74114029940e-01 3.79135629945339003e-01 3.84224632972376023e-01 3.89381943746121006e-01
  3.94608479135e-01 3.99905168315845994e-01 4.05272952935019026e-01 4.10712787279885028e-01
  4.16225638446e-01 4.21812486511612017e-01 4.27474324707571018e-01 4.33212159598234003e-01
  4.39027011258e-01 4.44919913454337013e-01 4.50891913829075008e-01 4.56944074087147989e-01
  4.63077470184e-01 4.69293192517607982e-01 4.75592346121349985e-01 4.81976050861445016e-01
  4.88445441636e-01 4.95001668574617026e-01 5.01645897247370964e-01 5.08379308867520030e-01
  5.15203100504e-01 5.22118485292553003e-01 5.29126692653875019e-01 5.36228968509709025e-01
  5.43426575506e-01 5.50720793235018991e-01 5.58112918467057018e-01 5.65604265376761006e-01
  5.73196165779e-01 5.80889969364550951e-01 5.88687043941384047e-01 5.96588775676491045e-01
  6.04596569343e-01 6.12711848569741035e-01 6.20936056094418043e-01 6.29270654020022024e-01
  6.37717124075e-01 6.46276967875680008e-01 6.54951707195211008e-01 6.63742884232118024e-01
  6.72652061885e-01 6.81680824032554034e-01 6.90830775810400977e-01 7.00103543901209990e-01
  7.09500776822e-01 7.19024145215231947e-01 7.28675342150733041e-01 7.38456083421775045e-01
  7.48368107853e-01 7.58413177606888977e-01 7.68593078501378035e-01 7.78909620323003038e-01
  7.89364637151e-01 7.99959987682010043e-01 8.10697555562365002e-01 8.21579249721115956e-01
  8.32607004710e-01 8.43782781048821984e-01 8.55108565570715018e-01 8.66586371778641951e-01
  8.78218240202e-01 8.90006238758279999e-01 9.01952463123583015e-01 9.14059037102299965e-01
  9.26328113006e-01 9.38761872036466993e-01 9.51362524672076049e-01 9.64132311062178005e-01
  9.77073501425e-01 9.90188396449647956e-01 1.00347932770860004e+00 1.01694865806873991e+00
  1.03059878211e+00 1.04443212656652995e+00 1.05845115072651996e+00 1.07265834690101003e+00
  1.08705624085e+00 1.10164739224057007e+00 1.11643439509004994e+00 1.13141987823908008e+00
  1.14660650581e+00 1.16199697769676003e+00 1.17759403001475005e+00 1.19340043561734999e+00
  1.20941900457e+00 1.22565258467207006e+00 1.24210406192451006e+00 1.25877636108159008e+00
  1.27567244615e+00 1.29279532092724003e+00 1.31014802952048992e+00 1.32773365690294010e+00
  1.34555532945e+00 1.36361621551993006e+00 1.38191952597051992e+00 1.40046851477647993e+00
  1.41926647958e+00 1.43831676230502992e+00 1.45762274970464989e+00 1.47718787400991003e+00
  1.49701561352e+00 1.51710949320861999e+00 1.53747308538395000e+00 1.55811001029045992e+00
  1.57902393677e+00 1.60021858290651009e+00 1.62169771669541007e+00 1.64346515670510995e+00
  1.66552477276e+00 1.68788048662785006e+00 1.71053627271654007e+00 1.73349615878107000e+00
  1.75676422664e+00 1.78034461289834001e+00 1.80424150968854002e+00 1.82845916541017006e+00
  1.85300188549e+00 1.87787403313705004e+00 1.90308003013780991e+00 1.92862435762286011e+00
  1.95451155687e+00 1.98074623012589002e+00 2.00733304139181978e+00 2.03427671728527981e+00
  2.06158204786e+00 2.08925388748106000e+00 2.11729715564732013e+00 2.14571683790659984e+00
  2.17451798672e+00 2.20370572237270990e+00 2.23328523386730016e+00 2.26326177986317001e+00
  2.29364068960e+00 2.32442736386192994e+00 2.35562727590750987e+00 2.38724597247297021e+00
  2.41928907474e+00 2.45176227935407987e+00 2.48467135940533002e+00 2.51802216548672009e+00
  2.55182062672e+00 2.58607275180439000e+00 2.62078463010191021e+00 2.65596243270285992e+00
  2.69161241353e+00 2.72774091045595979e+00 2.76435434641543987e+00 2.80145923056159019e+00
  2.83906215942e+00 2.87716981804282002e+00 2.91578898123729990e+00 2.95492651473016021e+00
  2.99458937641e+00 3.03478461755132001e+00 3.07551938408599979e+00 3.11680091785581004e+00
  3.15863655791e+00 3.20103374180231981e+00 3.24400000692513002e+00 3.28754299183753984e+00
  3.33167043763e+00 3.37639018929594004e+00 3.42171019713325997e+00 3.46763851815093993e+00
  3.51418331750e+00 3.56135286994835010e+00 3.60915556130411019e+00 3.65759988995419016e+00
  3.70669446835e+00 3.75644802454977000e+00 3.80686940375729987e+00 3.85796756990743983e+00
  3.90975160725e+00 3.96223072198203008e+00 4.01541424385256995e+00 4.06931162785321021e+00
  4.12393245588e+00 4.17928643845541981e+00 4.23538341642407001e+00 4.29223336273285039e+00
  4.34984638419e+00 4.40823272325801963e+00 4.46740275988845958e+00 4.52736701335340008e+00
  4.58813614412e+00 4.64972095575680022e+00 4.71213239682950036e+00 4.77538156287227977e+00
  4.83947969835e+00 4.90443819864924002e+00 4.97026861212523041e+00 5.03698264213389013e+00
  5.10459214912e+00 5.17310915273827021e+00 5.24254583396108043e+00 5.31291453727309015e+00
  5.38422777285e+00 5.45649821879219044e+00 5.52973872336526995e+00 5.60396230729763012e+00
  5.67918216609e+00 5.75541167235551043e+00 5.83266437821148998e+00 5.91095401767432005e+00
  5.99029450911e+00 6.07069995769874993e+00 6.15218465795929959e+00 6.23476309627352965e+00
  6.31844995347e+00 6.40326010743322982e+00 6.48920863574667983e+00 6.57631081837527987e+00
  6.66458214038e+00 6.75403829467551997e+00 6.84469518481101957e+00 6.93656892780670020e+00
  7.02967585701e+00 7.12403252502214990e+00 7.21965570659742983e+00 7.31656240166871008e+00
  7.41476983835e+00 7.51429547599424019e+00 7.61515700831579956e+00 7.71737236651758973e+00
  7.82095972249e+00 7.92593749202985975e+00 8.03232433813419000e+00 8.14013917429828915e+00
  8.24940116789e+00 8.36012974354587968e+00 8.47234458664330070e+00 8.58606564678133033e+00
  8.70131314134e+00 8.81810755905697086e+00 8.93646966370122087e+00 9.05642049773334001e+00
  9.17798138606e+00 9.30117393983175944e+00 9.42602006026572070e+00 9.55254194255850031e+00
  9.68076207982e+00 9.81070326708621998e+00 9.94238860534768065e+00 1.00758415056803994e+01
  1.02110856934e+01 1.03481452122615991e+01 1.04870444287750999e+01 1.06278080364962992e+01
  1.07704610604e+01 1.09150288615114004e+01 1.10615371410418994e+01 1.12100119453308000e+01
  1.13604796703e+01 1.15129670661336991e+01 1.16675012421338007e+01 1.18241096714396008e+01
  1.19828201960e+01 1.21436610313239992e+01 1.23066607718747996e+01 1.24718483957756998e+01
  1.26392532702e+01 1.28089051563061993e+01 1.29808342150253999e+01 1.31550710119268999e+01
  1.33316465229e+01 1.35105921396117008e+01 1.36919396750875997e+01 1.38757213693669001e+01
  1.40619698952e+01 1.42507183640313997e+01 1.44420003315367005e+01 1.46358498039377007e+01
  1.48323012439e+01 1.50313895765614998e+01 1.52331501960079994e+01 1.54376189712985994e+01
  1.56448322530e+01 1.58548268795039995e+01 1.60676401838125003e+01 1.62833099999385986e+01