<PP_INFO>
Generated using ppconvert
Author:  Kenneth P. Esler  Generation date: 05/27/16
<PP_INFO/>
<PP_HEADER>
   0                  Version Number
  Li                  Element
  NC                  Norm - Conserving pseudopotential
   F                  Nonlinear Core Correction
  SLA   PW  PBE  PBE  Exchange-Corelation functional
  1.0000000000        Z valence
  -0.1963400000       Total energy
  0.000000  0.000000  Suggested cutoff for wfc and rho
  2                   Max angular momentum component
  1487                Number of points in mesh
  3   2               Number of Wavefunctions, Number of Projectors
 WaveFunctions      nl   l   occ    
                    2s   0   1.0000
                    2p   1   0.0000
                    3d   2   0.0000
<PP_HEADER/>
<PP_MESH>
  <PP_R>
  0.00000000000e+00 3.35565465108560995e-09 6.75635097472065040e-09 1.02026935480969994e-08
  1.36952950634e-08 1.72347764368115986e-08 2.08217669187396010e-08 2.44569042058439991e-08
  2.81408345543e-08 3.18742128948439001e-08 3.56577029489305989e-08 3.94919773470065979e-08
  4.33777177480e-08 4.73156149602956992e-08 5.13063690650233029e-08 5.53506895400423997e-08
  5.94492953863e-08 6.36029152556644013e-08 6.78122875803511031e-08 7.20781607043156943e-08
  7.64012930162e-08 8.07824530843590987e-08 8.52224197931193051e-08 8.97219824816271047e-08
  9.42819410840e-08 9.89031062715222045e-08 1.03586299596874999e-07 1.08332353640085001e-07
  1.13142112157e-07 1.18016430227245004e-07 1.22956174410317002e-07 1.27962222895562008e-07
  1.33035465660e-07 1.38176804627834013e-07 1.43387153827405987e-07 1.48667439557079006e-07
  1.54018600548e-07 1.59441588132442012e-07 1.64937366410700012e-07 1.70506912424721012e-07
  1.76151216331e-07 1.81871281575271996e-07 1.87668125074025002e-07 1.93542777392171000e-07
  1.99496282928e-07 2.05529700097626991e-07 2.11644101524988011e-07 2.17840574230702011e-07
  2.24120219826e-07 2.30484154709572011e-07 2.36933510263668987e-07 2.43469433057611002e-07
  2.50093085050e-07 2.56805643797746011e-07 2.63608302660971993e-07 2.70502271019613021e-07
  2.77488774486e-07 2.84569055124204014e-07 2.91744371668819985e-07 2.99015999750780019e-07
  3.06385232123e-07 3.13853378890994003e-07 3.21421767744617009e-07 3.29091744195271975e-07
  3.36864671815e-07 3.44741932476658019e-07 3.52724926604302024e-07 3.60815073417442022e-07
  3.69013811186e-07 3.77322597484074026e-07 3.85742909451987980e-07 3.94276244055977007e-07
  4.02924118356e-07 4.11688069774045004e-07 4.20569656369666019e-07 4.29570457114761018e-07
  4.38692072175e-07 4.47936123196035020e-07 4.57304253587889008e-07 4.66798128821028993e-07
  4.76419436720e-07 4.86169887766379984e-07 4.96051215397869969e-07 5.06065176321462029e-07
  5.16213550823e-07 5.26498143085428987e-07 5.36920781507045033e-07 5.47483319029044970e-07
  5.58187633464e-07 5.69035627828426953e-07 5.80029230684136017e-07 5.91170396478064998e-07
  6.02461105891e-07 6.13903366190667956e-07 6.25499211586052970e-07 6.37250703591575038e-07
  6.49159931392e-07 6.61229012215705002e-07 6.73460091707888048e-07 6.85855344315213967e-07
  6.98416973671e-07 7.11147212986261033e-07 7.24048325448802035e-07 7.37122604623500048e-07
  7.50372374861e-07 7.63799991711167980e-07 7.77407842340991991e-07 7.91198345959845953e-07
  8.05173954249e-07 8.19337151798259008e-07 8.33690456546300949e-07 8.48236420229687980e-07
  8.62977628836e-07 8.77916703062858018e-07 8.93056298785537980e-07 9.08399107527428038e-07
  9.23947856939e-07 9.39705311284462012e-07 9.55674271929393947e-07 9.71857577842570057e-07
  9.88258106099e-07 1.00487877239067995e-06 1.02172253154715998e-06 1.03879237805866995e-06
  1.05609134661e-06 1.07362251261751000e-06 1.09138899278048996e-06 1.10939394563064999e-06
  1.12764057210e-06 1.14613211606901006e-06 1.16487186498428009e-06 1.18386315040197998e-06
  1.20310934860e-06 1.22261388117732000e-06 1.24238021565581999e-06 1.26241186610323005e-06
  1.28271239375e-06 1.30328540764614001e-06 1.32413456525665996e-06 1.34526357315800993e-06
  1.36667618767e-06 1.38837621554777994e-06 1.41036751461950992e-06 1.43265399451129009e-06
  1.45523961732e-06 1.47812839833501993e-06 1.50132440672521007e-06 1.52483176628915993e-06
  1.54865465617e-06 1.57279731162568999e-06 1.59726402473266008e-06 1.62205914519816995e-06
  1.64718708111e-06 1.67265229971974990e-06 1.69845932824764996e-06 1.72461275467678999e-06
  1.75111722857e-06 1.77797746191580995e-06 1.80519822992530993e-06 1.83278437192191998e-06
  1.86074079218e-06 1.88907246080739000e-06 1.91778441461585996e-06 1.94688175802968983e-06
  1.97636966399e-06 2.00625337485852996e-06 2.03653820338401011e-06 2.06722953361229996e-06
  2.09833282186e-06 2.12985359768459008e-06 2.16179746486047992e-06 2.19417010238222008e-06
  2.22697726547e-06 2.26022478659667997e-06 2.29391857651833018e-06 2.32806462533143986e-06
  2.36266900353e-06 2.39773786310843986e-06 2.43327743860922015e-06 2.46929404827730993e-06
  2.50579409516e-06 2.54278406825182993e-06 2.58027054364426011e-06 2.61826018569869999e-06
  2.65675974823e-06 2.69577607570430008e-06 2.73531610446227020e-06 2.77538686394586986e-06
  2.81599547795e-06 2.85714916589438005e-06 2.89885524409498009e-06 2.94112112707674984e-06
  2.98395432889e-06 3.02736246442625982e-06 3.07135325081443993e-06 3.11593450875041986e-06
  3.16111416391e-06 3.20690024834659000e-06 3.25330090193339985e-06 3.30032437379630010e-06
  3.34797902379e-06 3.39627332397019016e-06 3.44521586012503011e-06 3.49481533327620983e-06
  3.54508056124e-06 3.59602048018472997e-06 3.64764414623473980e-06 3.69996073706509017e-06
  3.75297955354e-06 3.80671002136901006e-06 3.86116169277426004e-06 3.91634424819714997e-06
  3.97226749802e-06 4.02894138428645962e-06 4.08637598251807994e-06 4.14458150345645040e-06
  4.20356829490e-06 4.26334684355391984e-06 4.32392777686406019e-06 4.38532186493670989e-06
  4.44754002244e-06 4.51059331053794993e-06 4.57449293887568002e-06 4.63925026755355033e-06
  4.70487680916e-06 4.77138423079691013e-06 4.83878435619275987e-06 4.90708916776567986e-06
  4.97631080877e-06 5.04646158546710031e-06 5.11755396928137008e-06 5.18960059904925962e-06
  5.26261428325e-06 5.33660800228717031e-06 5.41159491079383965e-06 5.48758833997371004e-06
  5.56460179997e-06 5.64264898226702036e-06 5.72174376212526000e-06 5.80190020104713026e-06
  5.88313254928e-06 5.96545524833615961e-06 6.04888293358692992e-06 6.13343043683787005e-06
  6.21911278898e-06 6.30594522265383996e-06 6.39394317496847970e-06 6.48312229023501013e-06
  6.57349842275e-06 6.66508763962917998e-06 6.75790622363152018e-06 6.85197067608633016e-06
  6.94729771981e-06 7.04390430208558014e-06 7.14180759766904961e-06 7.24102501184924031e-06
  7.34157418354e-06 7.44347298841109963e-06 7.54673954207736012e-06 7.65139220330806070e-06
  7.75744957730e-06 7.86493051896594010e-06 7.97385413632276071e-06 8.08423979385235937e-06
  8.19610711596e-06 8.30947599047136045e-06 8.42436657214448989e-06 8.54079928627663989e-06
  8.65879483232e-06 8.77837418758227941e-06 8.89955861091947955e-06 9.02236964655192964e-06
  9.14682912788e-06 9.27295918134974079e-06 9.40078223042572043e-06 9.53032099953829080e-06
  9.66159851814e-06 9.79463812481152958e-06 9.92946347137951959e-06 1.00660985271526992e-05
  1.02045675832e-05 1.03448952565097008e-05 1.04871064946907003e-05 1.06312265800831992e-05
  1.07772811344e-05 1.09252961233251995e-05 1.10752978609791997e-05 1.12273130147476997e-05
  1.13813686099e-05 1.15374920346451001e-05 1.16957110445278992e-05 1.18560537678362997e-05
  1.20185487104e-05 1.21832247605336000e-05 1.23501111945164007e-05 1.25192376814527003e-05
  1.26906342887e-05 1.28643314872746998e-05 1.30403601570794008e-05 1.32187515925822006e-05
  1.33995375083e-05 1.35827500443854003e-05 1.37684217724803998e-05 1.39565857013672007e-05
  1.41472752829e-05 1.43405244179707998e-05 1.45363674624705007e-05 1.47348392334629004e-05
  1.49359750153e-05 1.51398105661071004e-05 1.53463821237289995e-05 1.55557264125834012e-05
  1.57678806500e-05 1.59828825527988005e-05 1.62007703441539999e-05 1.64215827602313007e-05
  1.66453590572e-05 1.68721390179601993e-05 1.71019629596887995e-05 1.73348717405334006e-05
  1.75709067671e-05 1.78101100018313003e-05 1.80525239703383997e-05 1.82981917690890999e-05
  1.85471570730e-05 1.87994641432425989e-05 1.90551578350545012e-05 1.93142836057710003e-05
  1.95768875229e-05 1.98430162722093012e-05 2.01127171662420011e-05 2.03860381525126002e-05
  2.06630278221e-05 2.09437354184570000e-05 2.12282108457802992e-05 2.15165046782668001e-05
  2.18086681689e-05 2.21047532586638995e-05 2.24048125856490987e-05 2.27088994945391996e-05
  2.30170680460e-05 2.33293730264529000e-05 2.36458699575165014e-05 2.39666151061752000e-05
  2.42916654946e-05 2.46210789104833996e-05 2.49549139169772988e-05 2.52932298634401987e-05
  2.56360868958e-05 2.59835459673816984e-05 2.63356688495413016e-05 2.66925181428500990e-05
  2.70541572881e-05 2.74206505777136003e-05 2.77920631669523012e-05 2.81684610857210994e-05
  2.85499112502e-05 2.89364814747475008e-05 2.93282404839856993e-05 2.97252579249896996e-05
  3.01276043797e-05 3.05353513773857973e-05 3.09485714075250992e-05 3.13673379325287005e-05
  3.17917254009e-05 3.22218092603626966e-05 3.26576659714575014e-05 3.30993730209514986e-05
  3.35470089357e-05 3.40006532966172020e-05 3.44603867527673024e-05 3.49262910357588986e-05
  3.53984489742e-05 3.58769445086648967e-05 3.63618627061449993e-05 3.68532897756441007e-05
  3.73513130833e-05 3.78560211678081999e-05 3.83675037564725990e-05 3.88858517808476011e-05
  3.94111573931e-05 3.99435139821518025e-05 4.04830161907024976e-05 4.10297599316348006e-05
  4.15838424053e-05 4.21453621166362004e-05 4.27144188929208028e-05 4.32911139012775997e-05
  4.38755496668e-05 4.44678300906668981e-05 4.50680604687877015e-05 4.56763475103487995e-05
  4.62927993569e-05 4.69175256014163990e-05 4.75506373080748001e-05 4.81922470317055996e-05
  4.88424688379e-05 4.95014183235069032e-05 5.01692126366884018e-05 5.08459704982419018e-05
  5.15318122225e-05 5.22268597385623019e-05 5.29312366123865969e-05 5.36450680683419977e-05
  5.43684810117e-05 5.51016040510466968e-05 5.58445675213625013e-05 5.65975035069772012e-05
  5.73605458652e-05 5.81338302498965028e-05 5.89174941360014971e-05 5.97116768435636974e-05
  6.05165195627e-05 6.13321653787152947e-05 6.21587592974233948e-05 6.29964482710429030e-05
  6.38453812243e-05 6.47057090807376059e-05 6.55775847899029975e-05 6.64611633541828953e-05
  6.73566018565e-05 6.82640594883939970e-05 6.91836975779418944e-05 7.01156796188198955e-05
  7.10601712992e-05 7.20173405311379000e-05 7.29873574806374966e-05 7.39703945976899978e-05
  7.49666266470e-05 7.59762307392271015e-05 7.69993863620862986e-05 7.80362754126441029e-05
  7.90870822295e-05 8.01519936254098956e-05 8.12311989208725941e-05 8.23248899774120990e-05
  8.34332612319e-05 8.45565097309574026e-05 8.56948351662415939e-05 8.68484399096909967e-05
  8.80175290496e-05 8.92023104272131003e-05 9.04029946733547014e-05 9.16197952461966986e-05
  9.28529284690e-05 9.41026135688328004e-05 9.53690727150902030e-05 9.66525310594456953e-05
  9.79532167757e-05 9.92713611001513050e-05 1.00607198373184003e-04 1.01960966080449003e-04
  1.03332904895e-04 1.04723258721669001e-04 1.06132274737143998e-04 1.07560203437204006e-04
  1.09007298680e-04 1.10473817729514999e-04 1.11960021305314994e-04 1.13466173624880994e-04
  1.14992542453e-04 1.16539399146929000e-04 1.18107018708709006e-04 1.19695679829982996e-04
  1.21305664944e-04 1.22937260273313988e-04 1.24590755884876011e-04 1.26266445737397012e-04
  1.27964627736e-04 1.29685603783300988e-04 1.31429679836009012e-04 1.33197165956390007e-04
  1.34988376369e-04 1.36803629515523000e-04 1.38643248112850991e-04 1.40507559208988010e-04
  1.42396894242e-04 1.44311589098431001e-04 1.46251984173736992e-04 1.48218424432080989e-04
  1.50211259468e-04 1.52230843568589003e-04 1.54277535776277999e-04 1.56351699952871997e-04
  1.58453704844e-04 1.60583924145350012e-04 1.62742736567793013e-04 1.64930525906019994e-04
  1.67147681106e-04 1.69394596334860003e-04 1.71671671049751008e-04 1.73979310070072993e-04
  1.76317923649e-04 1.78687927545739995e-04 1.81089743101038006e-04 1.83523797310492989e-04
  1.85990522901e-04 1.88490358408839994e-04 1.91023748255008996e-04 1.93591142826858993e-04
  1.96192998557e-04 1.98829778003975998e-04 2.01501949935961009e-04 2.04209989412632996e-04
  2.06954377870e-04 2.09735603207670998e-04 2.12554159871931013e-04 2.15410548947308995e-04
  2.18305278244e-04 2.21238862387665008e-04 2.24211822912604011e-04 2.27224688352795003e-04
  2.30277994337e-04 2.33372283682301988e-04 2.36508106493645004e-04 2.39686020258596011e-04
  2.42906589948e-04 2.46170388115974996e-04 2.49477995001989991e-04 2.52829998633728975e-04
  2.56226994932e-04 2.59669587815534010e-04 2.63158389310580020e-04 2.66694019657480008e-04
  2.70277107422e-04 2.73908289607114014e-04 2.77588211765728975e-04 2.81317528115972995e-04
  2.85096901657e-04 2.88927004288118004e-04 2.92808516925822980e-04 2.96742129627273012e-04
  3.00728541712e-04 3.04768461885239006e-04 3.08862608366408003e-04 3.13011709014304003e-04
  3.17216501458e-04 3.21477733226470017e-04 3.25796161884007985e-04 3.30172555162386978e-04
  3.34607691099e-04 3.39102358172951022e-04 3.43657355449191002e-04 3.48273492716614000e-04
  3.52951590634e-04 3.57692480875529992e-04 3.62497006278614004e-04 3.67366020993759024e-04
  3.72300390636e-04 3.77300992440814977e-04 3.82368715416038973e-04 3.87504460503952024e-04
  3.92709140739e-04 3.97983681412664983e-04 4.03329020233670005e-04 4.08746107498980996e-04
  4.14235906261e-04 4.19799392497211975e-04 4.25437555287687982e-04 4.31151396986929989e-04
  4.36941933404e-04 4.42810193983042978e-04 4.48757221985643991e-04 4.54784074676951974e-04
  4.60891823513e-04 4.67081554332852023e-04 4.73354367548436017e-04 4.79711378343389023e-04
  4.86153716870e-04 4.92682528448984045e-04 4.99298973776029012e-04 5.06004229125215006e-04
  5.12799486560e-04 5.19685954142841975e-04 5.26664856153985961e-04 5.33737433305103010e-04
  5.40904942962e-04 5.48168659367100986e-04 5.55529873867289972e-04 5.62989895142181041e-04
  5.70550049437e-04 5.78211680800361965e-04 5.85976151318972965e-04 5.93844841364018984e-04
  6.01819149834e-04 6.09900494406124031e-04 6.18090311783787982e-04 6.26390057956551990e-04
  6.34801208457e-04 6.43325258622046993e-04 6.51963723861721952e-04 6.60718139925635991e-04
  6.69590063177e-04 6.78581070871419993e-04 6.87692761432504018e-04 6.96926754740830978e-04
  7.06284692420e-04 7.15768238126614979e-04 7.25379077850740999e-04 7.35118920210952025e-04
  7.44989496760e-04 7.54992562294337947e-04 7.65129895161781965e-04 7.75403297581969946e-04
  7.85814595965e-04 7.96365641234622959e-04 8.07058309161169034e-04 8.17894500691155961e-04
  8.28876142287e-04 8.40005186269985010e-04 8.51283611165608019e-04 8.62713422057061045e-04
  8.74296650941e-04 8.86035357088115990e-04 8.97931627410923053e-04 9.09987576833088036e-04
  9.22205348666e-04 9.34587114990940993e-04 9.47135077042649052e-04 9.59851465603238970e-04
  9.72738541398e-04 9.85798595495075963e-04 9.99033949717752006e-04 1.01244695705226010e-03
  1.02604000207e-03 1.03981550134376005e-03 1.05377590389182994e-03 1.06792369159887011e-03
  1.08226137966e-03 1.09679151704848992e-03 1.11151668692495995e-03 1.12643950714056990e-03
  1.14156263068e-03 1.15688874613968000e-03 1.17242057820142009e-03 1.18816088812114993e-03
  1.20411247422e-03 1.22027817237044993e-03 1.23666085652403995e-03 1.25326343919873002e-03
  1.27008887201e-03 1.28714014618574991e-03 1.30442029311298997e-03 1.32193238486186010e-03
  1.33967953474e-03 1.35766489784074009e-03 1.37589167161161004e-03 1.39436309641520007e-03
  1.41308245611e-03 1.43205307862848998e-03 1.45127833657874997e-03 1.47076164783404000e-03
  1.49050647615e-03 1.51051633175671991e-03 1.53079477202816994e-03 1.55134540206927000e-03
  1.57217187538e-03 1.59327789449784010e-03 1.61466721166106993e-03 1.63634362947078990e-03
  1.65831100157e-03 1.68057323332556990e-03 1.70313428252781996e-03 1.72599816008882009e-03
  1.74916893076e-03 1.77265071384492996e-03 1.79644768395023006e-03 1.82056407170919999e-03
  1.84500416454e-03 1.86977230742190999e-03 1.89487290363605002e-03 1.92031041557991005e-03
  1.94608936554e-03 1.97221433652315994e-03 1.99868997302298000e-03 2.02552098189383994e-03
  2.05271213316e-03 2.08026826088616003e-03 2.10819426400141001e-03 2.13649510720560981e-03
  2.16517582183e-03 2.19424150675680014e-03 2.22369732928246995e-03 2.25354852607956985e-03
  2.28380040411e-03 2.31445834155357983e-03 2.34552778880253981e-03 2.37701426939218021e-03
  2.40892338100e-03 2.44126079644688999e-03 2.47403226468597987e-03 2.50724361184435007e-03
  2.54090074225e-03 2.57500963947831021e-03 2.60957636742617993e-03 2.64460707137970010e-03
  2.68010797911e-03 2.71608540198855011e-03 2.75254573609091989e-03 2.78949546335212004e-03
  2.82694115271e-03 2.86488946127428984e-03 2.90334713551122997e-03 2.94232101244184998e-03
  2.98181802086e-03 3.02184518255423995e-03 3.06240961357569013e-03 3.10351852548364010e-03
  3.14517922664e-03 3.18739912349346984e-03 3.23018572192258985e-03 3.27354662854379991e-03
  3.31748955208e-03 3.36202230471300016e-03 3.40715280350311006e-03 3.45288907176588989e-03
  3.49923924051e-03 3.54621154989938001e-03 3.59381435067865004e-03 3.64205610569726980e-03
  3.69094539139e-03 3.74049089932710016e-03 3.79070143771643997e-03 3.84158593301248998e-03
  3.89315343148e-03 3.94541310081540034e-03 3.99837423175886976e-03 4.05204623976385039e-03
  4.10643866666e-03 4.16156118236139013e-03 4.21742358656551977e-03 4.27403581051559976e-03
  4.33140791876e-03 4.38955011092403979e-03 4.44847272356227019e-03 4.50818623195712014e-03
  4.56870125200e-03 4.63002854207811981e-03 4.69217900498030034e-03 4.75516368984211027e-03
  4.81899379411e-03 4.88368066551636993e-03 4.94923580412964977e-03 5.01567086436608984e-03
  5.08299765708e-03 5.15122815165040999e-03 5.22037447812861988e-03 5.29044892937504015e-03
  5.36146396325e-03 5.43343220484879003e-03 5.50636644870166996e-03 5.58027966109298987e-03
  5.65518498234e-03 5.73109572915372987e-03 5.80802539696578975e-03 5.88598766236823976e-03
  5.96499638552e-03 6.04506561263856018e-03 6.12620957844989007e-03 6.20844270876633967e-03
  6.29177962303e-03 6.37623513690478965e-03 6.46182426493373003e-03 6.54856222318486985e-03
  6.63646443197e-03 6.72554651857438981e-03 6.81582432005363014e-03 6.90731388603055014e-03
  7.00003148156e-03 7.09399359000786010e-03 7.18921691600284043e-03 7.28571838838489028e-03
  7.38351516323e-03 7.48262462687547970e-03 7.58306439905614017e-03 7.68485233599148967e-03
  7.78800653358e-03 7.89254533062590941e-03 7.99848731207103945e-03 8.10585131232727935e-03
  8.21465641861e-03 8.32492197433819942e-03 8.43666758256529994e-03 8.54991310947235059e-03
  8.66467868790e-03 8.78098472090716071e-03 8.89885188544111035e-03 9.01830113597056927e-03
  9.13935370823e-03 9.26203112300291037e-03 9.38635518992316994e-03 9.51234801137705067e-03
  9.64003198642e-03 9.76942981476222952e-03 9.90056450080233075e-03 1.00334593577188994e-02
  1.01681380116e-02 1.03046244057153000e-02 1.04429428046289002e-02 1.05831177986569994e-02
  1.07251743082e-02 1.08691375880260992e-02 1.10150332320830008e-02 1.11628871777260004e-02
  1.13127257105e-02 1.14645754687326996e-02 1.16184634483648998e-02 1.17744170076553994e-02
  1.19324638721e-02 1.20926321393121997e-02 1.22549502840954005e-02 1.24194471634286995e-02
  1.25861520216e-02 1.27550944955721005e-02 1.29263046199031995e-02 1.30998128324343998e-02
  1.32756499795e-02 1.34538473215815996e-02 1.36344365385948994e-02 1.38174497357922005e-02
  1.40029194493e-02 1.41908786521055003e-02 1.43813607595678992e-02 1.45743996357097002e-02
  1.47700295991e-02 1.49682854287994001e-02 1.51692023709258002e-02 1.53728161445374992e-02
  1.55791629482e-02 1.57882794662578992e-02 1.60002028756069010e-02 1.62149708520528991e-02
  1.64326215771e-02 1.66531937448891991e-02 1.68767265687257001e-02 1.71032597884020997e-02
  1.73328336771e-02 1.75654890485222002e-02 1.78012672642739005e-02 1.80402102410909017e-02
  1.82823604584e-02 1.85277609656280991e-02 1.87764553903168006e-02 1.90284879454170990e-02
  1.92839034374e-02 1.95427472740779991e-02 1.98050654728736987e-02 2.00709046688048003e-02
  2.03403121229e-02 2.06133357304460994e-02 2.08900240297738016e-02 2.11704262106157011e-02
  2.14545921230e-02 2.17425722860201016e-02 2.20344178969472983e-02 2.23301808402013996e-02
  2.26299136966e-02 2.29336697528939003e-02 2.32415030108396002e-02 2.35534681972003994e-02
  2.38696207733e-02 2.41900169448002016e-02 2.45147136719374992e-02 2.48437686794052009e-02
  2.51772404667e-02 2.55151883186875011e-02 2.58576723157619009e-02 2.62047533449071002e-02
  2.65564931103e-02 2.69129541444747995e-02 2.72741998191269007e-02 2.76402943566923000e-02
  2.80113028416e-02 2.83872912319169009e-02 2.87683263709880011e-02 2.91544759994055991e-02
  2.95458087670e-02 2.99423942451008014e-02 3.03443029388082985e-02 3.07516062996252004e-02
  3.11643767381e-02 3.15826876367630016e-02 3.20066133630659971e-02 3.24362292827096999e-02
  3.28716117730e-02 3.33128382363827025e-02 3.37599871143125022e-02 3.42131379010901029e-02
  3.46723711580e-02 3.51377685278660978e-02 3.56094127490780010e-02 3.60873876707882013e-02
  3.65717782676e-02 3.70626706545977985e-02 3.75601521029073973e-02 3.80643110549604979e-02
  3.85752371403e-02 3.90930211917044981e-02 3.96177552609068978e-02 4.01495326353889029e-02
  4.06884478548e-02 4.12345967275625988e-02 4.17880763483952020e-02 4.23489851150834970e-02
  4.29174227462e-02 4.34934902988773978e-02 4.40772901865855021e-02 4.46689261975276031e-02
  4.52685035130e-02 4.58761287260961992e-02 4.64919098606850004e-02 4.71159563905870979e-02
  4.77483792591e-02 4.83892908984758022e-02 4.90388052503952024e-02 4.96970377857385986e-02
  5.03641055254e-02 5.10401270608270979e-02 5.17252225755365017e-02 5.24195138660472973e-02
  5.31231243638e-02 5.38361791568112980e-02 5.45588050124029000e-02 5.52911303992476011e-02
  5.60332855105e-02 5.67854022866641009e-02 5.75476144395068029e-02 5.83200574753727982e-02
  5.91028687195e-02 5.98961873404017034e-02 6.07001543745808031e-02 6.15149127516302005e-02
  6.23406073196e-02 6.31773848708984953e-02 6.40253941680949956e-02 6.48847859706605939e-02
  6.57557130616e-02 6.66383302747613065e-02 6.75327945221242953e-02 6.84392648219348948e-02
  6.93579023269e-02 7.02888703526411973e-02 7.12323344071694037e-02 7.21884622198684933e-02
  7.31574237715e-02 7.41393913245507047e-02 7.51345394535127969e-02 7.61430450762649036e-02
  7.71650874854e-02 7.82008483798928011e-02 7.92505118978868023e-02 8.03142646489456991e-02
  8.13922957475e-02 8.24847968462761039e-02 8.35919621706549959e-02 8.47139885529151065e-02
  8.58510754674e-02 8.70034250657938935e-02 8.81712422133781037e-02 8.93547345251340941e-02
  9.05541124028e-02 9.17695890723043001e-02 9.30013806215537059e-02 9.42497060389688029e-02
  9.55147872524e-02 9.67968491683738053e-02 9.80961197125175960e-02 9.94128298696392992e-02
  1.00747213725e-01 1.02099508505947997e-01 1.03469954623969004e-01 1.04858795717549996e-01
  1.06266278695e-01 1.07692653780517997e-01 1.09138174554357995e-01 1.10603098002230005e-01
  1.12087684559e-01 1.13592198154558996e-01 1.15116906262470994e-01 1.16662079945798997e-01
  1.18227993906e-01 1.19814926532368998e-01 1.21423159949975004e-01 1.23052980071371998e-01
  1.24704676647e-01 1.26378543315113001e-01 1.28074877657459008e-01 1.29793981248707002e-01
  1.31536159712e-01 1.33301722771948988e-01 1.35090984311672990e-01 1.36904262426628009e-01
  1.38741879482e-01 1.40604162170537006e-01 1.42491441569189997e-01 1.44404053199410992e-01
  1.46342337086e-01 1.48306637818112014e-01 1.50297304609692012e-01 1.52314691362382987e-01
  1.54359156728e-01 1.56431064172535994e-01 1.58530782040450013e-01 1.60658683620481996e-01
  1.62815147212e-01 1.65000556191539000e-01 1.67215299082456997e-01 1.69459769622507000e-01
  1.71734366835e-01 1.74039495097518010e-01 1.76375564217957997e-01 1.78742989503235999e-01
  1.81142191835e-01 1.83573597745006006e-01 1.86037639489018997e-01 1.88534755125587011e-01
  1.91065388593e-01 1.93629989788183993e-01 1.96229014647127997e-01 1.98862925225497006e-01
  2.01532189781e-01 2.04237282856579994e-01 2.06978685364805987e-01 2.09756884673340999e-01
  2.12572374692e-01 2.15425655958560003e-01 2.18317235731737003e-01 2.21247628077372999e-01
  2.24217353962e-01 2.27226941344185002e-01 2.30276925270133992e-01 2.33367847967069997e-01
  2.36500258941e-01 2.39674715071744010e-01 2.42891780716911004e-01 2.46152027807258006e-01
  2.49456035951e-01 2.52804392535629974e-01 2.56197692833793012e-01 2.59636540107668012e-01
  2.63121545717e-01 2.66653329227336977e-01 2.70232518520788001e-01 2.73859749907037986e-01
  2.77535668237e-01 2.81260927016273976e-01 2.85036188523571987e-01 2.88862123926214021e-01
  2.92739413401e-01 2.96668746252760018e-01 3.00650821041194005e-01 3.04686345700767025e-01
  3.08776037669e-01 3.12920624012155979e-01 3.17120841557358979e-01 3.21377437020726020e-01
  3.25691167142e-01 3.30062798816548986e-01 3.34493109236200015e-01 3.38982886022912988e-01
  3.43532927371e-01 3.48144042188842984e-01 3.52817050242172026e-01 3.57552782300335992e-01
  3.62352080284e-01 3.67215797413524003e-01 3.72144798363350016e-01 3.77139959413025028e-01
  3.82202168604e-01 3.87332325898921026e-01 3.92531343338250016e-01 3.97800145205783995e-01
  4.03139668191e-01 4.08550861557355982e-01 4.14034687308170002e-01 4.19592120360531007e-01
  4.25224148717e-01 4.30931773642413973e-01 4.36716009840164010e-01 4.42577885634311996e-01
  4.48518443152e-01 4.54538738506645001e-01 4.60639841990172993e-01 4.66822838258826978e-01
  4.73088826528e-01 4.79438920768344989e-01 4.85874249901549982e-01 4.92395958003304990e-01
  4.99005204506e-01 5.05703164402872996e-01 5.12491028461316001e-01 5.19370003430154048e-01
  5.26341312256e-01 5.33406194302168957e-01 5.40565905565135951e-01 5.47821718901701948e-01
  5.55174924253e-01 5.62626828875950946e-01 5.70178757572178951e-01 5.77832052927022999e-01
  5.85588075546e-01 5.93448204299447002e-01 6.01413836562845971e-01 6.09486388470056983e-01
  6.17667295163e-01 6.25958011045683049e-01 6.34360010045937006e-01 6.42874785874285037e-01
  6.51503852291e-01 6.60248743375296043e-01 6.69111013797274001e-01 6.78092239095093974e-01
  6.87194015955e-01 6.96417962493688036e-01 7.05765718549107968e-01 7.15238945968866946e-01
  7.24839328907e-01 7.34568574124238038e-01 7.44428411289098979e-01 7.54420593287724039e-01
  7.64546896534e-01 7.74809121287309055e-01 7.85209091969168993e-01 7.95748657490988998e-01
  8.06429691581e-01 8.17254093118027991e-01 8.28223786468441969e-01 8.39340721828906955e-01
  8.50606875573e-01 8.62024250601465036e-01 8.73594876700637957e-01 8.85320810900953048e-01
  8.97204137844e-01 9.09246970151986966e-01 9.21451448805145956e-01 9.33819743520531986e-01
  9.46354053139e-01 9.59056606014275004e-01 9.71929660412435004e-01 9.84975504910054034e-01
  9.98196458803e-01 1.01159487251711000e+00 1.02517312802867000e+00 1.03893363928526994e+00
  1.05287885264e+00 1.06701124726744001e+00 1.08133333564171008e+00 1.09584766394585009e+00
  1.11055681254e+00 1.12546339643198001e+00 1.14057006571108999e+00 1.15587950605030998e+00
  1.17139443917e+00 1.18711762331612003e+00 1.20305185376803991e+00 1.21919996331806990e+00
  1.23556482278e+00 1.25214934151659008e+00 1.26895646791910011e+00 1.28598918996915002e+00
  1.30325053575e+00 1.32074357399401010e+00 1.33847141461752006e+00 1.35643720928439993e+00
  1.37464415196e+00 1.39309547948514001e+00 1.41179447214136000e+00 1.43074445424427998e+00
  1.44994879473e+00 1.46941090775267003e+00 1.48913425329615001e+00 1.50912233778447002e+00
  1.52937871471e+00 1.54990698525227000e+00 1.57071079894316989e+00 1.59179385429075992e+00
  1.61315989945e+00 1.63481273288307993e+00 1.65675620404174007e+00 1.67899421404462990e+00
  1.70153071637e+00 1.72436971757941993e+00 1.74751527798702999e+00 1.77097151242435991e+00
  1.79474259095e+00 1.81883273959739999e+00 1.84324624112176005e+00 1.86798743576588011e+00
  1.89306072203e+00 1.91847055745183992e+00 1.94422145940383007e+00 1.97031800589144002e+00
  1.99676483637e+00 2.02356665256625012e+00 2.05072821931976979e+00 2.07825436542451003e+00
  2.10614998449e+00 2.13442003581107986e+00 2.16306954524889017e+00 2.19210360612509003e+00
  2.22152738013e+00 2.25134609822517007e+00 2.28156506160366979e+00 2.31218964260223014e+00
  2.34322528567e+00 2.37467750834071989e+00 2.40655190219914017e+00 2.43885413388957017e+00
  2.47158994612e+00 2.50476515866475014e+00 2.53838566943860000e+00 2.57245745550586014e+00
  2.60698657416e+00 2.64197916400995014e+00 2.67744144604473000e+00 2.71337972476609979e+00
  2.74980038930e+00 2.78670991451528982e+00 2.82411486221442987e+00 2.86202188226044019e+00
  2.90043771378e+00 2.93936918635231992e+00 2.97882322123373999e+00 3.01880683257778015e+00
  3.05932712869e+00 3.10039131327725004e+00 3.14200668675524009e+00 3.18418064751949981e+00
  3.22692069327e+00 3.27023442236207007e+00 3.31412953511589015e+00 3.35861383522679002e+00
  3.40369523113e+00 3.44938173742052001e+00 3.49568147625834991e+00 3.54260267883209989e+00
  3.59015368681e+00 3.63834295383714990e+00 3.68717904701395005e+00 3.73667064844359009e+00
  3.78682655676e+00 3.83765568871123008e+00 3.88916708071125017e+00 3.94136989047985020e+00
  3.99427339865e+00 4.04788701044132004e+00 4.10222025729159956e+00 4.15728279859188987e+00
  4.21308442338e+00 4.26963505210207028e+00 4.32694473834181004e+00 4.38502367064228959e+00
  4.44388217430e+00 4.50353071320390974e+00 4.56397989169586005e+00 4.62524045645563042e+00
  4.68732329841e+00 4.75023945467714981e+00 4.81400011051222965e+00 4.87861660131255981e+00
  4.94410041462e+00 5.01046319218717962e+00 5.07771673200265017e+00 5.14587299043285995e+00
  5.21494408433e+00 5.28494229316800990e+00 5.35588006127083016e+00 5.42776999997952014e+00