          ******************************************************
          *         GAMESS VERSION =  1 MAY 2013 (R1)          *
          *             FROM IOWA STATE UNIVERSITY             *
          * M.W.SCHMIDT, K.K.BALDRIDGE, J.A.BOATZ, S.T.ELBERT, *
          *   M.S.GORDON, J.H.JENSEN, S.KOSEKI, N.MATSUNAGA,   *
          *          K.A.NGUYEN, S.J.SU, T.L.WINDUS,           *
          *       TOGETHER WITH M.DUPUIS, J.A.MONTGOMERY       *
          *         J.COMPUT.CHEM.  14, 1347-1363(1993)        *
          **************** 64 BIT INTEL VERSION ****************

  SINCE 1993, STUDENTS AND POSTDOCS WORKING AT IOWA STATE UNIVERSITY
  AND ALSO IN THEIR VARIOUS JOBS AFTER LEAVING ISU HAVE MADE IMPORTANT
  CONTRIBUTIONS TO THE CODE:
     IVANA ADAMOVIC, CHRISTINE AIKENS, YURI ALEXEEV, POOJA ARORA,
     ANDREY ASADCHEV, ROB BELL, PRADIPTA BANDYOPADHYAY, JONATHAN BENTZ,
     BRETT BODE, GALINA CHABAN, WEI CHEN, CHEOL HO CHOI, PAUL DAY,
     ALBERT DEFUSCO, TIM DUDLEY, DMITRI FEDOROV, GRAHAM FLETCHER,
     MARK FREITAG, KURT GLAESEMANN, DAN KEMP, GRANT MERRILL,
     NORIYUKI MINEZAWA, JONATHAN MULLIN, TAKESHI NAGATA,
     SEAN NEDD, HEATHER NETZLOFF, BOSILJKA NJEGIC, RYAN OLSON, MIKE PAK,
     JIM SHOEMAKER, LYUDMILA SLIPCHENKO, SAROM SOK, JIE SONG,
     TETSUYA TAKETSUGU, SIMON WEBB, SOOHAENG YOO, FEDERICO ZAHARIEV

  ADDITIONAL CODE HAS BEEN PROVIDED BY COLLABORATORS IN OTHER GROUPS:
     IOWA STATE UNIVERSITY:
          JOE IVANIC, LAIMUTIS BYTAUTAS, KLAUS RUEDENBERG
     UNIVERSITY OF TOKYO: KIMIHIKO HIRAO, TAKAHITO NAKAJIMA,
          TAKAO TSUNEDA, MUNEAKI KAMIYA, SUSUMU YANAGISAWA,
          KIYOSHI YAGI, MAHITO CHIBA, SEIKEN TOKURA, NAOAKI KAWAKAMI
     UNIVERSITY OF AARHUS: FRANK JENSEN
     UNIVERSITY OF IOWA: VISVALDAS KAIRYS, HUI LI
     NATIONAL INST. OF STANDARDS AND TECHNOLOGY: WALT STEVENS, DAVID GARMER
     UNIVERSITY OF PISA: BENEDETTA MENNUCCI, JACOPO TOMASI
     UNIVERSITY OF MEMPHIS: HENRY KURTZ, PRAKASHAN KORAMBATH
     UNIVERSITY OF ALBERTA: TOBY ZENG, MARIUSZ KLOBUKOWSKI
     UNIVERSITY OF NEW ENGLAND: MARK SPACKMAN
     MIE UNIVERSITY: HIROAKI UMEDA
     MICHIGAN STATE UNIVERSITY:
          KAROL KOWALSKI, MARTA WLOCH, JEFFREY GOUR, JESSE LUTZ,
          WEI LI, PIOTR PIECUCH
     UNIVERSITY OF SILESIA: MONIKA MUSIAL, STANISLAW KUCHARSKI
     FACULTES UNIVERSITAIRES NOTRE-DAME DE LA PAIX:
          OLIVIER QUINET, BENOIT CHAMPAGNE
     UNIVERSITY OF CALIFORNIA - SANTA BARBARA: BERNARD KIRTMAN
     INSTITUTE FOR MOLECULAR SCIENCE:
          KAZUYA ISHIMURA, MICHIO KATOUDA, AND SHIGERU NAGASE
     UNIVERSITY OF NOTRE DAME: DAN CHIPMAN
     KYUSHU UNIVERSITY:
          HARUYUKI NAKANO,
          FENG LONG GU, JACEK KORCHOWIEC, MARCIN MAKOWSKI, AND YURIKO AOKI,
          HIROTOSHI MORI AND EISAKU MIYOSHI
     PENNSYLVANIA STATE UNIVERSITY:
          TZVETELIN IORDANOV, CHET SWALINA, JONATHAN SKONE,
          SHARON HAMMES-SCHIFFER
     WASEDA UNIVERSITY:
          MASATO KOBAYASHI, TOMOKO AKAMA, TSUGUKI TOUMA,
          TAKESHI YOSHIKAWA, YASUHIRO IKABATA, HIROMI NAKAI
     NANJING UNIVERSITY: SHUHUA LI
     UNIVERSITY OF NEBRASKA:
          PEIFENG SU, DEJUN SI, NANDUN THELLAMUREGE, YALI WANG, HUI LI
     UNIVERSITY OF ZURICH:
          ROBERTO PEVERATI, KIM BALDRIDGE
     N. COPERNICUS UNIVERSITY AND JACKSON STATE UNIVERSITY:
          MARIA BARYSZ


 PARALLEL VERSION RUNNING ON     8 PROCESSORS IN     1 NODES.

 EXECUTION OF GAMESS BEGUN Mon Jul 13 17:38:06 2015

            ECHO OF THE FIRST FEW INPUT CARDS -
 INPUT CARD> $contrl exetyp=run ispher=1 maxit=200 runtyp=energy scftyp=rohf  $end          
 INPUT CARD> $system memory=150000000  $end                                                 
 INPUT CARD> $scf    dirscf=.true.  $end                                                    
 INPUT CARD> $guess  guess=hcore  $end                                                      
 INPUT CARD> $DATA                                                                          
 INPUT CARD>Li..cc-pV5Z..MCSCF                                                              
 INPUT CARD>C1                                                                              
 INPUT CARD>Li 3.0 0.0000 0.0000 0.0000                                                     
 INPUT CARD>S   10                                                                          
 INPUT CARD>  1  29493.0000000              0.0000180                                       
 INPUT CARD>  2   4417.1010000              0.0001410                                       
 INPUT CARD>  3   1005.2230000              0.0007390                                       
 INPUT CARD>  4    284.7009000              0.0031070                                       
 INPUT CARD>  5     92.8654300              0.0111350                                       
 INPUT CARD>  6     33.5117900              0.0346700                                       
 INPUT CARD>  7     13.0418000              0.0921710                                       
 INPUT CARD>  8      5.3575360              0.1995760                                       
 INPUT CARD>  9      2.2793380              0.3288360                                       
 INPUT CARD> 10      0.9939900              0.3459750                                       
 INPUT CARD>S   10                                                                          
 INPUT CARD>  1  29493.0000000             -0.0000030                                       
 INPUT CARD>  2   4417.1010000             -0.0000220                                       
 INPUT CARD>  3   1005.2230000             -0.0001150                                       
 INPUT CARD>  4    284.7009000             -0.0004870                                       
 INPUT CARD>  5     92.8654300             -0.0017460                                       
 INPUT CARD>  6     33.5117900             -0.0055200                                       
 INPUT CARD>  7     13.0418000             -0.0149280                                       
 INPUT CARD>  8      5.3575360             -0.0342060                                       
 INPUT CARD>  9      2.2793380             -0.0621550                                       
 INPUT CARD> 10      0.9939900             -0.0959020                                       
 INPUT CARD>S   1                                                                           
 INPUT CARD>  1      0.4334710              1.0000000                                       
 INPUT CARD>S   1                                                                           
 INPUT CARD>  1      0.0955660              1.0000000                                       
 INPUT CARD>S   1                                                                           
 INPUT CARD>  1      0.0446570              1.0000000                                       
 INPUT CARD>S   1                                                                           
 INPUT CARD>  1      0.0206330              1.0000000                                       
 INPUT CARD>P   3                                                                           
 INPUT CARD>  1     11.2500000              0.0013120                                       
 INPUT CARD>  2      2.5000000              0.0099180                                       
 INPUT CARD>  3      0.6500000              0.0375420                                       
 INPUT CARD>P   1                                                                           
 INPUT CARD>  1      0.2500000              1.0000000                                       
 INPUT CARD>P   1                                                                           
 INPUT CARD>  1      0.1000000              1.0000000                                       
 INPUT CARD>P   1                                                                           
 INPUT CARD>  1      0.0390000              1.0000000                                       
 INPUT CARD>P   1                                                                           
 INPUT CARD>  1      0.0170000              1.0000000                                       
  150000000 WORDS OF MEMORY AVAILABLE


     RUN TITLE
     ---------
 Li..cc-pV5Z..MCSCF                                                              

 THE POINT GROUP OF THE MOLECULE IS C1      
 THE ORDER OF THE PRINCIPAL AXIS IS     0
 *** WARNING! ATOM   1 SHELL    1 TYPE S HAS NORMALIZATION   1.11666566
 *** WARNING! ATOM   1 SHELL    2 TYPE S HAS NORMALIZATION   5.21245887
 *** WARNING! ATOM   1 SHELL    7 TYPE P HAS NORMALIZATION  22.49789000
 *** WARNING! ATOM   2 SHELL   21 TYPE S HAS NORMALIZATION  18.23693290

 ATOM      ATOMIC                      COORDINATES (BOHR)
           CHARGE         X                   Y                   Z
 LI          3.0     0.0000000000        0.0000000000        0.0000000000
 H           1.0     0.0000000000        0.0000000000        3.0139239778

          INTERNUCLEAR DISTANCES (ANGS.)
          ------------------------------

                1 LI         2 H     

   1 LI      0.0000000    1.5949000 *
   2 H       1.5949000 *  0.0000000  

  * ... LESS THAN  3.000


     ATOMIC BASIS SET
     ----------------
 THE CONTRACTED PRIMITIVE FUNCTIONS HAVE BEEN UNNORMALIZED
 THE CONTRACTED BASIS FUNCTIONS ARE NOW NORMALIZED TO UNITY

  SHELL TYPE  PRIMITIVE        EXPONENT          CONTRACTION COEFFICIENT(S)

 LI        

      1   S       1         29493.0000000    0.000020099982
      1   S       2          4417.1010000    0.000157449858
      1   S       3          1005.2230000    0.000825215924
      1   S       4           284.7009000    0.003469480212
      1   S       5            92.8654300    0.012434072146
      1   S       6            33.5117900    0.038714798501
      1   S       7            13.0418000    0.102924190732
      1   S       8             5.3575360    0.222859666159
      1   S       9             2.2793380    0.367199869628
      1   S      10             0.9939900    0.386338402409

      2   S      11         29493.0000000   -0.000015637377
      2   S      12          4417.1010000   -0.000114674095
      2   S      13          1005.2230000   -0.000599432770
      2   S      14           284.7009000   -0.002538467469
      2   S      15            92.8654300   -0.009100953183
      2   S      16            33.5117900   -0.028772772950
      2   S      17            13.0418000   -0.077811585979
      2   S      18             5.3575360   -0.178297368033
      2   S      19             2.2793380   -0.323980380929
      2   S      20             0.9939900   -0.499885230341

      3   S      21             0.4334710    1.000000000000

      4   S      22             0.0955660    1.000000000000

      5   S      23             0.0446570    1.000000000000

      6   S      24             0.0206330    1.000000000000

      7   P      25            11.2500000    0.029517231676
      7   P      26             2.5000000    0.223134072987
      7   P      27             0.6500000    0.844615786255

      8   P      28             0.2500000    1.000000000000

      9   P      29             0.1000000    1.000000000000

     10   P      30             0.0390000    1.000000000000

     11   P      31             0.0170000    1.000000000000

     12   D      32             0.5500000    1.000000000000

     13   D      33             0.2900000    1.000000000000

     14   D      34             0.1400000    1.000000000000

     15   D      35             0.0610000    1.000000000000

     16   F      36             0.3500000    1.000000000000

     17   F      37             0.2200000    1.000000000000

     18   F      38             0.1100000    1.000000000000

     19   G      39             0.3200000    1.000000000000

     20   G      40             0.1600000    1.000000000000

 H         

     21   S      41           402.0000000    0.005088104278
     21   S      42            60.2400000    0.039482959722
     21   S      43            13.7300000    0.204271885378
     21   S      44             3.9050000    0.818437074546

     22   S      45             1.2830000    1.000000000000

     23   S      46             0.4655000    1.000000000000

     24   S      47             0.1811000    1.000000000000

     25   S      48             0.0727900    1.000000000000

     26   P      49             4.5160000    1.000000000000

     27   P      50             1.7120000    1.000000000000

     28   P      51             0.6490000    1.000000000000

     29   P      52             0.2460000    1.000000000000

     30   D      53             2.9500000    1.000000000000

     31   D      54             1.2060000    1.000000000000

     32   D      55             0.4930000    1.000000000000

     33   F      56             2.5060000    1.000000000000

     34   F      57             0.8750000    1.000000000000

     35   G      58             2.3580000    1.000000000000

 TOTAL NUMBER OF BASIS SET SHELLS             =   35
 NUMBER OF CARTESIAN GAUSSIAN BASIS FUNCTIONS =  175
 NOTE: THIS RUN WILL RESTRICT THE MO VARIATION SPACE TO SPHERICAL HARMONICS.
 THE NUMBER OF ORBITALS KEPT IN THE VARIATIONAL SPACE WILL BE PRINTED LATER.
 NUMBER OF ELECTRONS                          =    4
 CHARGE OF MOLECULE                           =    0
 SPIN MULTIPLICITY                            =    1
 NUMBER OF OCCUPIED ORBITALS (ALPHA)          =    2
 NUMBER OF OCCUPIED ORBITALS (BETA )          =    2
 TOTAL NUMBER OF ATOMS                        =    2
 THE NUCLEAR REPULSION ENERGY IS        0.9953801164

 THIS MOLECULE IS RECOGNIZED AS BEING LINEAR,
 ORBITAL LZ DEGENERACY TOLERANCE ETOLLZ= 1.00E-06

     $CONTRL OPTIONS
     ---------------
 SCFTYP=ROHF         RUNTYP=ENERGY       EXETYP=RUN     
 MPLEVL=       0     CITYP =NONE         CCTYP =NONE         VBTYP =NONE    
 DFTTYP=NONE         TDDFT =NONE    
 MULT  =       1     ICHARG=       0     NZVAR =       0     COORD =UNIQUE  
 PP    =NONE         RELWFN=NONE         LOCAL =NONE         NUMGRD=       F
 ISPHER=       1     NOSYM =       0     MAXIT =     200     UNITS =ANGS    
 PLTORB=       F     MOLPLT=       F     AIMPAC=       F     FRIEND=        
 NPRINT=       7     IREST =       0     GEOM  =INPUT   
 NORMF =       0     NORMP =       0     ITOL  =      20     ICUT  =       9
 INTTYP=BEST         GRDTYP=BEST         QMTTOL= 1.0E-06

     $SYSTEM OPTIONS
     ---------------
  REPLICATED MEMORY=   150000000 WORDS (ON EVERY NODE).
 DISTRIBUTED MEMDDI=           0 MILLION WORDS IN AGGREGATE,
 MEMDDI DISTRIBUTED OVER   8 PROCESSORS IS           0 WORDS/PROCESSOR.
 TOTAL MEMORY REQUESTED ON EACH PROCESSOR=   150000000 WORDS.
 TIMLIM=      525600.00 MINUTES, OR     365.0 DAYS.
 PARALL= T  BALTYP=  DLB     KDIAG=    0  COREFL= F
 MXSEQ2=     300 MXSEQ3=     150

          ----------------
          PROPERTIES INPUT
          ----------------

     MOMENTS            FIELD           POTENTIAL          DENSITY
 IEMOM =       1   IEFLD =       0   IEPOT =       0   IEDEN =       0
 WHERE =COMASS     WHERE =NUCLEI     WHERE =NUCLEI     WHERE =NUCLEI  
 OUTPUT=BOTH       OUTPUT=BOTH       OUTPUT=BOTH       OUTPUT=BOTH    
 IEMINT=       0   IEFINT=       0                     IEDINT=       0
                                                       MORB  =       0
          EXTRAPOLATION IN EFFECT
          SOSCF IN EFFECT
 ORBITAL PRINTING OPTION: NPREO=     1   175     2     1

     -------------------------------
     INTEGRAL TRANSFORMATION OPTIONS
     -------------------------------
     NWORD  =            0
     CUTOFF = 1.0E-09     MPTRAN =       0
     DIRTRF =       T     AOINTS =DUP     

          ----------------------
          INTEGRAL INPUT OPTIONS
          ----------------------
 NOPK  =       1 NORDER=       0 SCHWRZ=       T

     ------------------------------------------
     THE POINT GROUP IS C1 , NAXIS= 0, ORDER= 1
     ------------------------------------------

 -- VARIATIONAL SPACE WILL BE RESTRICTED TO PURE SPHERICAL HARMONICS ONLY --
 AFTER EXCLUDING CONTAMINANT COMBINATIONS FROM THE CARTESIAN GAUSSIAN BASIS
 SET, THE NUMBER OF SPHERICAL HARMONICS KEPT IN THE VARIATION SPACE IS  135

     DIMENSIONS OF THE SYMMETRY SUBSPACES ARE
 A   =  135

 ..... DONE SETTING UP THE RUN .....
 CPU     0: STEP CPU TIME=     0.04 TOTAL CPU TIME=        0.0 (    0.0 MIN)
 TOTAL WALL CLOCK TIME=        0.0 SECONDS, CPU UTILIZATION IS  80.00%

          ********************
          1 ELECTRON INTEGRALS
          ********************
 ...... END OF ONE-ELECTRON INTEGRALS ......
 CPU     0: STEP CPU TIME=     0.00 TOTAL CPU TIME=        0.0 (    0.0 MIN)
 TOTAL WALL CLOCK TIME=        0.1 SECONDS, CPU UTILIZATION IS  40.00%

          -------------
          GUESS OPTIONS
          -------------
          GUESS =HCORE             NORB  =       0          NORDER=       0
          MIX   =       F          PRTMO =       F          PUNMO =       F
          TOLZ  = 1.0E-08          TOLE  = 1.0E-05
          SYMDEN=       F          PURIFY=       F

 INITIAL GUESS ORBITALS GENERATED BY HCORE    ROUTINE.

 STATISTICS FOR GENERATION OF SYMMETRY ORBITAL -Q- MATRIX
 NUMBER OF CARTESIAN ATOMIC ORBITALS=        175
 NUMBER OF SPHERICAL CONTAMINANTS DROPPED=    40
 NUMBER OF LINEARLY DEPENDENT MOS DROPPED=     0
 TOTAL NUMBER OF MOS IN VARIATION SPACE=     135

 SYMMETRIES FOR INITIAL GUESS ORBITALS FOLLOW.  ALPHA SET(S).
     2 ORBITALS ARE OCCUPIED (    1 CORE ORBITALS).
     2=A        3=A        4=A        5=A        6=A        7=A        8=A   
     9=A       10=A       11=A       12=A   

 SYMMETRIES FOR INITIAL GUESS ORBITALS FOLLOW.   BETA SET(S).
     2 ORBITALS ARE OCCUPIED (    1 CORE ORBITALS).
     2=A        3=A        4=A        5=A        6=A        7=A        8=A   
     9=A       10=A       11=A       12=A   
 ...... END OF INITIAL ORBITAL SELECTION ......
 CPU     0: STEP CPU TIME=     0.03 TOTAL CPU TIME=        0.1 (    0.0 MIN)
 TOTAL WALL CLOCK TIME=        0.1 SECONDS, CPU UTILIZATION IS  58.33%

                    ----------------------
                    AO INTEGRAL TECHNOLOGY
                    ----------------------
     S,P,L SHELL ROTATED AXIS INTEGRALS, REPROGRAMMED BY
        KAZUYA ISHIMURA (IMS) AND JOSE SIERRA (SYNSTAR).
     S,P,D,L SHELL ROTATED AXIS INTEGRALS PROGRAMMED BY
        KAZUYA ISHIMURA (INSTITUTE FOR MOLECULAR SCIENCE).
     S,P,D,F,G SHELL TO TOTAL QUARTET ANGULAR MOMENTUM SUM 5,
        ERIC PROGRAM BY GRAHAM FLETCHER (ELORET AND NASA ADVANCED
        SUPERCOMPUTING DIVISION, AMES RESEARCH CENTER).
     S,P,D,F,G,L SHELL GENERAL RYS QUADRATURE PROGRAMMED BY
        MICHEL DUPUIS (PACIFIC NORTHWEST NATIONAL LABORATORY).

          --------------------
          2 ELECTRON INTEGRALS
          --------------------

 DIRECT SCF METHOD SKIPS INTEGRAL STORAGE ON DISK.
 DIRECT TRANSFORMATION SKIPS AO INTEGRAL STORAGE ON DISK.
  ...... END OF TWO-ELECTRON INTEGRALS .....
 CPU     0: STEP CPU TIME=     0.01 TOTAL CPU TIME=        0.1 (    0.0 MIN)
 TOTAL WALL CLOCK TIME=        0.1 SECONDS, CPU UTILIZATION IS  61.54%

          ---------------------------
                 ROHF SCF CALCULATION
          ---------------------------

     NUCLEAR ENERGY =         0.9953801164
     MAXIT =200     NPUNCH=  2     MULT=  1
     EXTRAP=T  DAMP=F  SHIFT=F  RSTRCT=F  DIIS=F  SOSCF=T
     DENSITY MATRIX CONV=  2.00E-05
     ROHF CANONICALIZATION PARAMETERS
             C-C     O-O     V-V
     ALPHA -0.5000  0.5000  1.5000
     BETA   1.5000  0.5000 -0.5000
     SOSCF WILL OPTIMIZE     266 ORBITAL ROTATION ANGLES. SOGTOL= 2.500E-01
     MEMORY REQUIRED FOR UHF/ROHF ITERS=    375831 WORDS.

 DIRECT SCF CALCULATION, SCHWRZ=T   FDIFF=T
 SCHWARZ INEQUALITY OVERHEAD:     15400 INTEGRALS, T=        0.00

                                                                                NONZERO     BLOCKS
 ITER EX      TOTAL ENERGY        E CHANGE  DENSITY CHANGE    ORB. GRAD       INTEGRALS    SKIPPED
   1  0       -7.3094684265    -7.3094684265   1.937634445   0.000000000       27872730          0
          ---------------START SECOND ORDER SCF---------------
   2  1       -7.9739574183    -0.6644889918   0.097411653   0.033772741       27872730          0
   3  2       -7.9863174092    -0.0123599909   0.025216665   0.009418252       27872730          0
   4  3       -7.9872373890    -0.0009199799   0.005460768   0.002212423       27872730          0
   5  4       -7.9873121541    -0.0000747650   0.002658269   0.000767603       27872730          0
   6  5       -7.9873234276    -0.0000112735   0.001065063   0.000159830       27872713          7
   7  6       -7.9873236421    -0.0000002145   0.000164517   0.000020925       27865876         12
   8  7       -7.9873236457    -0.0000000036   0.000015661   0.000004525       27828601        188
   9  8       -7.9873236457    -0.0000000000   0.000002200   0.000000706       25908762       4296

          -----------------
          DENSITY CONVERGED
          -----------------
     TIME TO FORM FOCK OPERATORS=       4.5 SECONDS (       0.5 SEC/ITER)
     FOCK TIME ON FIRST ITERATION=       0.5, LAST ITERATION=       0.5
     TIME TO SOLVE SCF EQUATIONS=       0.0 SECONDS (       0.0 SEC/ITER)

 FINAL ROHF ENERGY IS       -7.9873236457 AFTER   9 ITERATIONS

          --------------------
          SPIN SZ   =    0.000
          S-SQUARED =   -0.000
          --------------------

 LZ VALUE ANALYSIS FOR THE MOS
 ----------------------------------------
 MO     1 (    1) HAS LZ(WEIGHT)= 0.00(100.0%) 
 MO     2 (    2) HAS LZ(WEIGHT)= 0.00(100.0%) 
 MO     3 (    3) HAS LZ(WEIGHT)= 0.00(100.0%) 
 MO     4 (    4) HAS LZ(WEIGHT)=-1.00( 50.0%)  1.00( 50.0%) 
 MO     5 (    4) HAS LZ(WEIGHT)=-1.00( 50.0%)  1.00( 50.0%) 
 MO     6 (    5) HAS LZ(WEIGHT)= 0.00(100.0%) 
 MO     7 (    6) HAS LZ(WEIGHT)= 0.00(100.0%) 
 MO     8 (    7) HAS LZ(WEIGHT)=-1.00( 50.0%)  1.00( 50.0%) 
 MO     9 (    7) HAS LZ(WEIGHT)=-1.00( 50.0%)  1.00( 50.0%) 
 MO    10 (    8) HAS LZ(WEIGHT)= 0.00(100.0%) 
 MO    11 (    9) HAS LZ(WEIGHT)=-2.00( 50.0%)  2.00( 50.0%) 
 MO    12 (    9) HAS LZ(WEIGHT)=-2.00( 50.0%)  2.00( 50.0%) 
 MO    13 (   10) HAS LZ(WEIGHT)=-1.00( 50.0%)  1.00( 50.0%) 
 MO    14 (   10) HAS LZ(WEIGHT)=-1.00( 50.0%)  1.00( 50.0%) 
 MO    15 (   11) HAS LZ(WEIGHT)= 0.00(100.0%) 
 MO    16 (   12) HAS LZ(WEIGHT)=-1.00( 50.0%)  1.00( 50.0%) 
 MO    17 (   12) HAS LZ(WEIGHT)=-1.00( 50.0%)  1.00( 50.0%) 
 MO    18 (   13) HAS LZ(WEIGHT)= 0.00(100.0%) 
 MO    19 (   14) HAS LZ(WEIGHT)= 0.00(100.0%) 
 MO    20 (   15) HAS LZ(WEIGHT)=-3.00( 50.0%)  3.00( 50.0%) 
 MO    21 (   15) HAS LZ(WEIGHT)=-3.00( 50.0%)  3.00( 50.0%) 
 MO    22 (   16) HAS LZ(WEIGHT)=-1.00( 50.0%)  1.00( 50.0%) 
 MO    23 (   16) HAS LZ(WEIGHT)=-1.00( 50.0%)  1.00( 50.0%) 
 MO    24 (   17) HAS LZ(WEIGHT)= 0.00(100.0%) 
 MO    25 (   18) HAS LZ(WEIGHT)=-2.00( 50.0%)  2.00( 50.0%) 
 MO    26 (   18) HAS LZ(WEIGHT)=-2.00( 50.0%)  2.00( 50.0%) 
 MO    27 (   19) HAS LZ(WEIGHT)= 0.00(100.0%) 
 MO    28 (   20) HAS LZ(WEIGHT)=-1.00( 50.0%)  1.00( 50.0%) 
 MO    29 (   20) HAS LZ(WEIGHT)=-1.00( 50.0%)  1.00( 50.0%) 
 MO    30 (   21) HAS LZ(WEIGHT)=-2.00( 50.0%)  2.00( 50.0%) 
 MO    31 (   21) HAS LZ(WEIGHT)=-2.00( 50.0%)  2.00( 50.0%) 
 MO    32 (   22) HAS LZ(WEIGHT)= 0.00(100.0%) 
 MO    33 (   23) HAS LZ(WEIGHT)= 0.00(100.0%) 
 MO    34 (   24) HAS LZ(WEIGHT)=-1.00( 50.0%)  1.00( 50.0%) 
 MO    35 (   24) HAS LZ(WEIGHT)=-1.00( 50.0%)  1.00( 50.0%) 
 MO    36 (   25) HAS LZ(WEIGHT)=-1.00( 50.0%)  1.00( 50.0%) 
 MO    37 (   25) HAS LZ(WEIGHT)=-1.00( 50.0%)  1.00( 50.0%) 
 MO    38 (   26) HAS LZ(WEIGHT)=-4.00( 50.0%)  4.00( 50.0%) 
 MO    39 (   26) HAS LZ(WEIGHT)=-4.00( 50.0%)  4.00( 50.0%) 
 MO    40 (   27) HAS LZ(WEIGHT)=-2.00( 50.0%)  2.00( 50.0%) 
 MO    41 (   27) HAS LZ(WEIGHT)=-2.00( 50.0%)  2.00( 50.0%) 
 MO    42 (   28) HAS LZ(WEIGHT)=-3.00( 50.0%)  3.00( 50.0%) 
 MO    43 (   28) HAS LZ(WEIGHT)=-3.00( 50.0%)  3.00( 50.0%) 
 MO    44 (   29) HAS LZ(WEIGHT)= 0.00(100.0%) 
 MO    45 (   30) HAS LZ(WEIGHT)=-1.00( 50.0%)  1.00( 50.0%) 
 MO    46 (   30) HAS LZ(WEIGHT)=-1.00( 50.0%)  1.00( 50.0%) 
 MO    47 (   31) HAS LZ(WEIGHT)= 0.00(100.0%) 
 MO    48 (   32) HAS LZ(WEIGHT)=-3.00( 50.0%)  3.00( 50.0%) 
 MO    49 (   32) HAS LZ(WEIGHT)=-3.00( 50.0%)  3.00( 50.0%) 
 MO    50 (   33) HAS LZ(WEIGHT)=-2.00( 50.0%)  2.00( 50.0%) 
 MO    51 (   33) HAS LZ(WEIGHT)=-2.00( 50.0%)  2.00( 50.0%) 
 MO    52 (   34) HAS LZ(WEIGHT)= 0.00(100.0%) 
 MO    53 (   35) HAS LZ(WEIGHT)=-1.00( 50.0%)  1.00( 50.0%) 
 MO    54 (   35) HAS LZ(WEIGHT)=-1.00( 50.0%)  1.00( 50.0%) 
 MO    55 (   36) HAS LZ(WEIGHT)= 0.00(100.0%) 
 MO    56 (   37) HAS LZ(WEIGHT)=-2.00( 50.0%)  2.00( 50.0%) 
 MO    57 (   37) HAS LZ(WEIGHT)=-2.00( 50.0%)  2.00( 50.0%) 
 MO    58 (   38) HAS LZ(WEIGHT)=-1.00( 50.0%)  1.00( 50.0%) 
 MO    59 (   38) HAS LZ(WEIGHT)=-1.00( 50.0%)  1.00( 50.0%) 
 MO    60 (   39) HAS LZ(WEIGHT)= 0.00(100.0%) 
 MO    61 (   40) HAS LZ(WEIGHT)= 0.00(100.0%) 
 MO    62 (   41) HAS LZ(WEIGHT)=-1.00( 50.0%)  1.00( 50.0%) 
 MO    63 (   41) HAS LZ(WEIGHT)=-1.00( 50.0%)  1.00( 50.0%) 
 MO    64 (   42) HAS LZ(WEIGHT)=-2.00( 50.0%)  2.00( 50.0%) 
 MO    65 (   42) HAS LZ(WEIGHT)=-2.00( 50.0%)  2.00( 50.0%) 
 MO    66 (   43) HAS LZ(WEIGHT)=-4.00( 50.0%)  4.00( 50.0%) 
 MO    67 (   43) HAS LZ(WEIGHT)=-4.00( 50.0%)  4.00( 50.0%) 
 MO    68 (   44) HAS LZ(WEIGHT)=-3.00( 50.0%)  3.00( 50.0%) 
 MO    69 (   44) HAS LZ(WEIGHT)=-3.00( 50.0%)  3.00( 50.0%) 
 MO    70 (   45) HAS LZ(WEIGHT)=-2.00( 50.0%)  2.00( 50.0%) 
 MO    71 (   45) HAS LZ(WEIGHT)=-2.00( 50.0%)  2.00( 50.0%) 
 MO    72 (   46) HAS LZ(WEIGHT)= 0.00(100.0%) 
 MO    73 (   47) HAS LZ(WEIGHT)=-1.00( 50.0%)  1.00( 50.0%) 
 MO    74 (   47) HAS LZ(WEIGHT)=-1.00( 50.0%)  1.00( 50.0%) 
 MO    75 (   48) HAS LZ(WEIGHT)= 0.00(100.0%) 
 MO    76 (   49) HAS LZ(WEIGHT)=-3.00( 50.0%)  3.00( 50.0%) 
 MO    77 (   49) HAS LZ(WEIGHT)=-3.00( 50.0%)  3.00( 50.0%) 
 MO    78 (   50) HAS LZ(WEIGHT)=-2.00( 50.0%)  2.00( 50.0%) 
 MO    79 (   50) HAS LZ(WEIGHT)=-2.00( 50.0%)  2.00( 50.0%) 
 MO    80 (   51) HAS LZ(WEIGHT)=-1.00( 50.0%)  1.00( 50.0%) 
 MO    81 (   51) HAS LZ(WEIGHT)=-1.00( 50.0%)  1.00( 50.0%) 
 MO    82 (   52) HAS LZ(WEIGHT)= 0.00(100.0%) 
 MO    83 (   53) HAS LZ(WEIGHT)=-1.00( 50.0%)  1.00( 50.0%) 
 MO    84 (   53) HAS LZ(WEIGHT)=-1.00( 50.0%)  1.00( 50.0%) 
 MO    85 (   54) HAS LZ(WEIGHT)=-1.00( 50.0%)  1.00( 50.0%) 
 MO    86 (   54) HAS LZ(WEIGHT)=-1.00( 50.0%)  1.00( 50.0%) 
 MO    87 (   55) HAS LZ(WEIGHT)= 0.00(100.0%) 
 MO    88 (   56) HAS LZ(WEIGHT)=-2.00( 50.0%)  2.00( 50.0%) 
 MO    89 (   56) HAS LZ(WEIGHT)=-2.00( 50.0%)  2.00( 50.0%) 
 MO    90 (   57) HAS LZ(WEIGHT)=-1.00( 50.0%)  1.00( 50.0%) 
 MO    91 (   57) HAS LZ(WEIGHT)=-1.00( 50.0%)  1.00( 50.0%) 
 MO    92 (   58) HAS LZ(WEIGHT)= 0.00(100.0%) 
 MO    93 (   59) HAS LZ(WEIGHT)= 0.00(100.0%) 
 MO    94 (   60) HAS LZ(WEIGHT)= 0.00(100.0%) 
 MO    95 (   61) HAS LZ(WEIGHT)=-3.00( 50.0%)  3.00( 50.0%) 
 MO    96 (   61) HAS LZ(WEIGHT)=-3.00( 50.0%)  3.00( 50.0%) 
 MO    97 (   62) HAS LZ(WEIGHT)=-2.00( 50.0%)  2.00( 50.0%) 
 MO    98 (   62) HAS LZ(WEIGHT)=-2.00( 50.0%)  2.00( 50.0%) 
 MO    99 (   63) HAS LZ(WEIGHT)=-1.00( 50.0%)  1.00( 50.0%) 
 MO   100 (   63) HAS LZ(WEIGHT)=-1.00( 50.0%)  1.00( 50.0%) 
 MO   101 (   64) HAS LZ(WEIGHT)= 0.00(100.0%) 
 MO   102 (   65) HAS LZ(WEIGHT)=-2.00( 50.0%)  2.00( 50.0%) 
 MO   103 (   65) HAS LZ(WEIGHT)=-2.00( 50.0%)  2.00( 50.0%) 
 MO   104 (   66) HAS LZ(WEIGHT)=-1.00( 50.0%)  1.00( 50.0%) 
 MO   105 (   66) HAS LZ(WEIGHT)=-1.00( 50.0%)  1.00( 50.0%) 
 MO   106 (   67) HAS LZ(WEIGHT)= 0.00(100.0%) 
 MO   107 (   68) HAS LZ(WEIGHT)=-1.00( 50.0%)  1.00( 50.0%) 
 MO   108 (   68) HAS LZ(WEIGHT)=-1.00( 50.0%)  1.00( 50.0%) 
 MO   109 (   69) HAS LZ(WEIGHT)= 0.00(100.0%) 
 MO   110 (   70) HAS LZ(WEIGHT)= 0.00(100.0%) 
 MO   111 (   71) HAS LZ(WEIGHT)=-3.00( 50.0%)  3.00( 50.0%) 
 MO   112 (   71) HAS LZ(WEIGHT)=-3.00( 50.0%)  3.00( 50.0%) 
 MO   113 (   72) HAS LZ(WEIGHT)= 0.00(100.0%) 
 MO   114 (   73) HAS LZ(WEIGHT)=-2.00( 50.0%)  2.00( 50.0%) 
 MO   115 (   73) HAS LZ(WEIGHT)=-2.00( 50.0%)  2.00( 50.0%) 
 MO   116 (   74) HAS LZ(WEIGHT)=-1.00( 50.0%)  1.00( 50.0%) 
 MO   117 (   74) HAS LZ(WEIGHT)=-1.00( 50.0%)  1.00( 50.0%) 
 MO   118 (   75) HAS LZ(WEIGHT)=-4.00( 50.0%)  4.00( 50.0%) 
 MO   119 (   75) HAS LZ(WEIGHT)=-4.00( 50.0%)  4.00( 50.0%) 
 MO   120 (   76) HAS LZ(WEIGHT)=-3.00( 50.0%)  3.00( 50.0%) 
 MO   121 (   76) HAS LZ(WEIGHT)=-3.00( 50.0%)  3.00( 50.0%) 
 MO   122 (   77) HAS LZ(WEIGHT)=-2.00( 50.0%)  2.00( 50.0%) 
 MO   123 (   77) HAS LZ(WEIGHT)=-2.00( 50.0%)  2.00( 50.0%) 
 MO   124 (   78) HAS LZ(WEIGHT)= 0.00(100.0%) 
 MO   125 (   79) HAS LZ(WEIGHT)=-1.00( 50.0%)  1.00( 50.0%) 
 MO   126 (   79) HAS LZ(WEIGHT)=-1.00( 50.0%)  1.00( 50.0%) 
 MO   127 (   80) HAS LZ(WEIGHT)= 0.00(100.0%) 
 MO   128 (   81) HAS LZ(WEIGHT)=-2.00( 50.0%)  2.00( 50.0%) 
 MO   129 (   81) HAS LZ(WEIGHT)=-2.00( 50.0%)  2.00( 50.0%) 
 MO   130 (   82) HAS LZ(WEIGHT)=-1.00( 50.0%)  1.00( 50.0%) 
 MO   131 (   82) HAS LZ(WEIGHT)=-1.00( 50.0%)  1.00( 50.0%) 
 MO   132 (   83) HAS LZ(WEIGHT)= 0.00(100.0%) 
 MO   133 (   84) HAS LZ(WEIGHT)=-1.00( 50.0%)  1.00( 50.0%) 
 MO   134 (   84) HAS LZ(WEIGHT)=-1.00( 50.0%)  1.00( 50.0%) 
 MO   135 (   85) HAS LZ(WEIGHT)= 0.00(100.0%) 

          ------------
          EIGENVECTORS
          ------------

                      1          2          3          4          5
                   -2.4452    -0.3017    -0.0039     0.0281     0.0281
                     A          A          A          A          A   
    1  LI 1  S    0.896026  -0.001044  -0.007110   0.000000   0.000000
    2  LI 1  S    0.001766   0.133123   0.054672   0.000000   0.000000
    3  LI 1  S    0.143486  -0.056729  -0.043567   0.000000   0.000000
    4  LI 1  S    0.004391   0.160545   0.226996   0.000000   0.000000
    5  LI 1  S   -0.002744   0.133952  -0.473771   0.000000   0.000000
    6  LI 1  S    0.000661   0.027947   1.058075   0.000000   0.000000
    7  LI 1  X    0.000000   0.000000   0.000000  -0.003405   0.015308
    8  LI 1  Y    0.000000   0.000000   0.000000   0.015308   0.003405
    9  LI 1  Z   -0.009905   0.031393  -0.020390   0.000000   0.000000
   10  LI 1  X    0.000000   0.000000   0.000000   0.004745  -0.021334
   11  LI 1  Y    0.000000   0.000000   0.000000  -0.021334  -0.004745
   12  LI 1  Z   -0.001433   0.054999   0.018279   0.000000   0.000000
   13  LI 1  X    0.000000   0.000000   0.000000  -0.046359   0.208428
   14  LI 1  Y    0.000000   0.000000   0.000000   0.208428   0.046359
   15  LI 1  Z   -0.000549   0.105307  -0.183985   0.000000   0.000000
   16  LI 1  X    0.000000   0.000000   0.000000   0.085629  -0.384985
   17  LI 1  Y    0.000000   0.000000   0.000000  -0.384985  -0.085629
   18  LI 1  Z   -0.000109   0.045777  -0.078296   0.000000   0.000000
   19  LI 1  X    0.000000   0.000000   0.000000  -0.264983   1.191350
   20  LI 1  Y    0.000000   0.000000   0.000000   1.191350   0.264983
   21  LI 1  Z   -0.000005   0.003732  -0.467378   0.000000   0.000000
   22  LI 1 XX    0.000625  -0.002762   0.003072   0.000000   0.000000
   23  LI 1 YY    0.000625  -0.002762   0.003072   0.000000   0.000000
   24  LI 1 ZZ   -0.001249   0.005525  -0.006144   0.000000   0.000000
   25  LI 1 XY    0.000000   0.000000   0.000000   0.000000   0.000000
   26  LI 1 XZ    0.000000   0.000000   0.000000  -0.001704   0.007661
   27  LI 1 YZ    0.000000   0.000000   0.000000   0.007661   0.001704
   28  LI 1 XX   -0.000258  -0.000283  -0.021950   0.000000   0.000000
   29  LI 1 YY   -0.000258  -0.000283  -0.021950   0.000000   0.000000
   30  LI 1 ZZ    0.000516   0.000567   0.043901   0.000000   0.000000
   31  LI 1 XY    0.000000   0.000000   0.000000   0.000000   0.000000
   32  LI 1 XZ    0.000000   0.000000   0.000000   0.006457  -0.029030
   33  LI 1 YZ    0.000000   0.000000   0.000000  -0.029030  -0.006457
   34  LI 1 XX    0.000176  -0.008174   0.031669   0.000000   0.000000
   35  LI 1 YY    0.000176  -0.008174   0.031669   0.000000   0.000000
   36  LI 1 ZZ   -0.000351   0.016348  -0.063337   0.000000   0.000000
   37  LI 1 XY    0.000000   0.000000   0.000000   0.000000   0.000000
   38  LI 1 XZ    0.000000   0.000000   0.000000  -0.014062   0.063222
   39  LI 1 YZ    0.000000   0.000000   0.000000   0.063222   0.014062
   40  LI 1 XX    0.000040  -0.006791  -0.032753   0.000000   0.000000
   41  LI 1 YY    0.000040  -0.006791  -0.032753   0.000000   0.000000
   42  LI 1 ZZ   -0.000080   0.013583   0.065506   0.000000   0.000000
   43  LI 1 XY    0.000000   0.000000   0.000000   0.000000   0.000000
   44  LI 1 XZ    0.000000   0.000000   0.000000   0.029837  -0.134145
   45  LI 1 YZ    0.000000   0.000000   0.000000  -0.134145  -0.029837
   46  LI 1 XXX   0.000000   0.000000   0.000000  -0.000100   0.000448
   47  LI 1 YYY   0.000000   0.000000   0.000000   0.000448   0.000100
   48  LI 1 ZZZ  -0.000434   0.001427   0.015588   0.000000   0.000000
   49  LI 1 XXY   0.000000   0.000000   0.000000   0.000200   0.000045
   50  LI 1 XXZ   0.000291  -0.000957  -0.010457   0.000000   0.000000
   51  LI 1 YYX   0.000000   0.000000   0.000000  -0.000045   0.000200
   52  LI 1 YYZ   0.000291  -0.000957  -0.010457   0.000000   0.000000
   53  LI 1 ZZX   0.000000   0.000000   0.000000   0.000178  -0.000802
   54  LI 1 ZZY   0.000000   0.000000   0.000000  -0.000802  -0.000178
   55  LI 1 XYZ   0.000000   0.000000   0.000000   0.000000   0.000000
   56  LI 1 XXX   0.000000   0.000000   0.000000   0.000792  -0.003562
   57  LI 1 YYY   0.000000   0.000000   0.000000  -0.003562  -0.000792
   58  LI 1 ZZZ   0.000487  -0.000780  -0.013982   0.000000   0.000000
   59  LI 1 XXY   0.000000   0.000000   0.000000  -0.001593  -0.000354
   60  LI 1 XXZ  -0.000326   0.000523   0.009379   0.000000   0.000000
   61  LI 1 YYX   0.000000   0.000000   0.000000   0.000354  -0.001593
   62  LI 1 YYZ  -0.000326   0.000523   0.009379   0.000000   0.000000
   63  LI 1 ZZX   0.000000   0.000000   0.000000  -0.001417   0.006372
   64  LI 1 ZZY   0.000000   0.000000   0.000000   0.006372   0.001417
   65  LI 1 XYZ   0.000000   0.000000   0.000000   0.000000   0.000000
   66  LI 1 XXX   0.000000   0.000000   0.000000   0.000727  -0.003267
   67  LI 1 YYY   0.000000   0.000000   0.000000  -0.003267  -0.000727
   68  LI 1 ZZZ  -0.000198   0.005421  -0.013617   0.000000   0.000000
   69  LI 1 XXY   0.000000   0.000000   0.000000  -0.001461  -0.000325
   70  LI 1 XXZ   0.000133  -0.003636   0.009134   0.000000   0.000000
   71  LI 1 YYX   0.000000   0.000000   0.000000   0.000325  -0.001461
   72  LI 1 YYZ   0.000133  -0.003636   0.009134   0.000000   0.000000
   73  LI 1 ZZX   0.000000   0.000000   0.000000  -0.001300   0.005843
   74  LI 1 ZZY   0.000000   0.000000   0.000000   0.005843   0.001300
   75  LI 1 XYZ   0.000000   0.000000   0.000000   0.000000   0.000000
   76  LI 1XXXX   0.000001  -0.000217   0.002337   0.000000   0.000000
   77  LI 1YYYY   0.000001  -0.000217   0.002337   0.000000   0.000000
   78  LI 1ZZZZ   0.000001  -0.000577   0.006233   0.000000   0.000000
   79  LI 1XXXY   0.000000   0.000000   0.000000   0.000000   0.000000
   80  LI 1XXXZ   0.000000   0.000000   0.000000   0.000256  -0.001150
   81  LI 1YYYX   0.000000   0.000000   0.000000   0.000000   0.000000
   82  LI 1YYYZ   0.000000   0.000000   0.000000  -0.001150  -0.000256
   83  LI 1ZZZX   0.000000   0.000000   0.000000  -0.000341   0.001533
   84  LI 1ZZZY   0.000000   0.000000   0.000000   0.001533   0.000341
   85  LI 1XXYY   0.000000  -0.000127   0.001369   0.000000   0.000000
   86  LI 1XXZZ  -0.000001   0.000507  -0.005475   0.000000   0.000000
   87  LI 1YYZZ  -0.000001   0.000507  -0.005475   0.000000   0.000000
   88  LI 1XXYZ   0.000000   0.000000   0.000000  -0.000514  -0.000114
   89  LI 1YYXZ   0.000000   0.000000   0.000000   0.000114  -0.000514
   90  LI 1ZZXY   0.000000   0.000000   0.000000   0.000000   0.000000
   91  LI 1XXXX   0.000026   0.000606  -0.005109   0.000000   0.000000
   92  LI 1YYYY   0.000026   0.000606  -0.005109   0.000000   0.000000
   93  LI 1ZZZZ   0.000071   0.001617  -0.013625   0.000000   0.000000
   94  LI 1XXXY   0.000000   0.000000   0.000000   0.000000   0.000000
   95  LI 1XXXZ   0.000000   0.000000   0.000000   0.000907  -0.004080
   96  LI 1YYYX   0.000000   0.000000   0.000000   0.000000   0.000000
   97  LI 1YYYZ   0.000000   0.000000   0.000000  -0.004080  -0.000907
   98  LI 1ZZZX   0.000000   0.000000   0.000000  -0.001210   0.005439
   99  LI 1ZZZY   0.000000   0.000000   0.000000   0.005439   0.001210
  100  LI 1XXYY   0.000015   0.000355  -0.002992   0.000000   0.000000
  101  LI 1XXZZ  -0.000062  -0.001420   0.011967   0.000000   0.000000
  102  LI 1YYZZ  -0.000062  -0.001420   0.011967   0.000000   0.000000
  103  LI 1XXYZ   0.000000   0.000000   0.000000  -0.001824  -0.000406
  104  LI 1YYXZ   0.000000   0.000000   0.000000   0.000406  -0.001824
  105  LI 1ZZXY   0.000000   0.000000   0.000000   0.000000   0.000000
  106  H  2  S    0.000413   0.041343  -0.006863   0.000000   0.000000
  107  H  2  S    0.000446   0.096182  -0.011584   0.000000   0.000000
  108  H  2  S    0.001942   0.210913  -0.046025   0.000000   0.000000
  109  H  2  S    0.002691   0.276848   0.008041   0.000000   0.000000
  110  H  2  S    0.000758   0.188443  -0.072019   0.000000   0.000000
  111  H  2  X    0.000000   0.000000   0.000000   0.000001  -0.000005
  112  H  2  Y    0.000000   0.000000   0.000000  -0.000005  -0.000001
  113  H  2  Z   -0.000083  -0.000370   0.000604   0.000000   0.000000
  114  H  2  X    0.000000   0.000000   0.000000  -0.000157   0.000704
  115  H  2  Y    0.000000   0.000000   0.000000   0.000704   0.000157
  116  H  2  Z    0.000142  -0.000721  -0.002993   0.000000   0.000000
  117  H  2  X    0.000000   0.000000   0.000000  -0.000211   0.000949
  118  H  2  Y    0.000000   0.000000   0.000000   0.000949   0.000211
  119  H  2  Z   -0.001079  -0.008052   0.012543   0.000000   0.000000
  120  H  2  X    0.000000   0.000000   0.000000   0.002141  -0.009626
  121  H  2  Y    0.000000   0.000000   0.000000  -0.009626  -0.002141
  122  H  2  Z   -0.001457  -0.017225   0.020371   0.000000   0.000000
  123  H  2 XX    0.000011  -0.000049   0.000260   0.000000   0.000000
  124  H  2 YY    0.000011  -0.000049   0.000260   0.000000   0.000000
  125  H  2 ZZ   -0.000022   0.000098  -0.000520   0.000000   0.000000
  126  H  2 XY    0.000000   0.000000   0.000000   0.000000   0.000000
  127  H  2 XZ    0.000000   0.000000   0.000000  -0.000108   0.000485
  128  H  2 YZ    0.000000   0.000000   0.000000   0.000485   0.000108
  129  H  2 XX   -0.000070  -0.000061  -0.001195   0.000000   0.000000
  130  H  2 YY   -0.000070  -0.000061  -0.001195   0.000000   0.000000
  131  H  2 ZZ    0.000140   0.000123   0.002390   0.000000   0.000000
  132  H  2 XY    0.000000   0.000000   0.000000   0.000000   0.000000
  133  H  2 XZ    0.000000   0.000000   0.000000   0.000462  -0.002076
  134  H  2 YZ    0.000000   0.000000   0.000000  -0.002076  -0.000462
  135  H  2 XX   -0.000423  -0.001603   0.007525   0.000000   0.000000
  136  H  2 YY   -0.000423  -0.001603   0.007525   0.000000   0.000000
  137  H  2 ZZ    0.000847   0.003207  -0.015050   0.000000   0.000000
  138  H  2 XY    0.000000   0.000000   0.000000   0.000000   0.000000
  139  H  2 XZ    0.000000   0.000000   0.000000  -0.000989   0.004448
  140  H  2 YZ    0.000000   0.000000   0.000000   0.004448   0.000989
  141  H  2 XXX   0.000000   0.000000   0.000000  -0.000030   0.000135
  142  H  2 YYY   0.000000   0.000000   0.000000   0.000135   0.000030
  143  H  2 ZZZ   0.000022  -0.000006  -0.000176   0.000000   0.000000
  144  H  2 XXY   0.000000   0.000000   0.000000   0.000060   0.000013
  145  H  2 XXZ  -0.000015   0.000004   0.000118   0.000000   0.000000
  146  H  2 YYX   0.000000   0.000000   0.000000  -0.000013   0.000060
  147  H  2 YYZ  -0.000015   0.000004   0.000118   0.000000   0.000000
  148  H  2 ZZX   0.000000   0.000000   0.000000   0.000054  -0.000241
  149  H  2 ZZY   0.000000   0.000000   0.000000  -0.000241  -0.000054
  150  H  2 XYZ   0.000000   0.000000   0.000000   0.000000   0.000000
  151  H  2 XXX   0.000000   0.000000   0.000000   0.000146  -0.000657
  152  H  2 YYY   0.000000   0.000000   0.000000  -0.000657  -0.000146
  153  H  2 ZZZ  -0.000385  -0.000221   0.001350   0.000000   0.000000
  154  H  2 XXY   0.000000   0.000000   0.000000  -0.000294  -0.000065
  155  H  2 XXZ   0.000258   0.000149  -0.000906   0.000000   0.000000
  156  H  2 YYX   0.000000   0.000000   0.000000   0.000065  -0.000294
  157  H  2 YYZ   0.000258   0.000149  -0.000906   0.000000   0.000000
  158  H  2 ZZX   0.000000   0.000000   0.000000  -0.000261   0.001175
  159  H  2 ZZY   0.000000   0.000000   0.000000   0.001175   0.000261
  160  H  2 XYZ   0.000000   0.000000   0.000000   0.000000   0.000000
  161  H  2XXXX   0.000021  -0.000005  -0.000004   0.000000   0.000000
  162  H  2YYYY   0.000021  -0.000005  -0.000004   0.000000   0.000000
  163  H  2ZZZZ   0.000056  -0.000013  -0.000010   0.000000   0.000000
  164  H  2XXXY   0.000000   0.000000   0.000000   0.000000   0.000000
  165  H  2XXXZ   0.000000   0.000000   0.000000  -0.000006   0.000028
  166  H  2YYYX   0.000000   0.000000   0.000000   0.000000   0.000000
  167  H  2YYYZ   0.000000   0.000000   0.000000   0.000028   0.000006
  168  H  2ZZZX   0.000000   0.000000   0.000000   0.000008  -0.000037
  169  H  2ZZZY   0.000000   0.000000   0.000000  -0.000037  -0.000008
  170  H  2XXYY   0.000012  -0.000003  -0.000002   0.000000   0.000000
  171  H  2XXZZ  -0.000049   0.000012   0.000009   0.000000   0.000000
  172  H  2YYZZ  -0.000049   0.000012   0.000009   0.000000   0.000000
  173  H  2XXYZ   0.000000   0.000000   0.000000   0.000012   0.000003
  174  H  2YYXZ   0.000000   0.000000   0.000000  -0.000003   0.000012
  175  H  2ZZXY   0.000000   0.000000   0.000000   0.000000   0.000000

                      6          7          8          9         10
                    0.0523     0.0698     0.0940     0.0940     0.1405
                     A          A          A          A          A   
    1  LI 1  S    0.034733   0.004863   0.000000   0.000000   0.050318
    2  LI 1  S    0.014428   0.103487   0.000000   0.000000   0.112869
    3  LI 1  S    0.084163  -0.018177   0.000000   0.000000   0.152446
    4  LI 1  S   -0.671470  -0.839152   0.000000   0.000000  -2.002028
    5  LI 1  S    0.933097   3.737950   0.000000   0.000000   2.213616
    6  LI 1  S   -0.532435  -2.585495   0.000000   0.000000  -0.706561
    7  LI 1  X    0.000000   0.000000   0.012186  -0.005654   0.000000
    8  LI 1  Y    0.000000   0.000000   0.005654   0.012186   0.000000
    9  LI 1  Z    0.020287   0.002862   0.000000   0.000000   0.019199
   10  LI 1  X    0.000000   0.000000   0.141199  -0.065509   0.000000
   11  LI 1  Y    0.000000   0.000000   0.065509   0.141199   0.000000
   12  LI 1  Z   -0.034640  -0.196420   0.000000   0.000000  -0.272678
   13  LI 1  X    0.000000   0.000000  -0.279782   0.129804   0.000000
   14  LI 1  Y    0.000000   0.000000  -0.129804  -0.279782   0.000000
   15  LI 1  Z   -0.574744   0.397629   0.000000   0.000000  -1.828306
   16  LI 1  X    0.000000   0.000000   1.722213  -0.799014   0.000000
   17  LI 1  Y    0.000000   0.000000   0.799014   1.722213   0.000000
   18  LI 1  Z    1.858823  -0.405246   0.000000   0.000000   2.096174
   19  LI 1  X    0.000000   0.000000  -1.252673   0.581172   0.000000
   20  LI 1  Y    0.000000   0.000000  -0.581172  -1.252673   0.000000
   21  LI 1  Z   -1.743788   0.225543   0.000000   0.000000  -0.880841
   22  LI 1 XX    0.002434  -0.005610   0.000000   0.000000  -0.022160
   23  LI 1 YY    0.002434  -0.005610   0.000000   0.000000  -0.022160
   24  LI 1 ZZ   -0.004868   0.011220   0.000000   0.000000   0.044320
   25  LI 1 XY    0.000000   0.000000   0.000000   0.000000   0.000000
   26  LI 1 XZ    0.000000   0.000000   0.008526  -0.003956   0.000000
   27  LI 1 YZ    0.000000   0.000000   0.003956   0.008526   0.000000
   28  LI 1 XX    0.001441   0.053592   0.000000   0.000000   0.156656
   29  LI 1 YY    0.001441   0.053592   0.000000   0.000000   0.156656
   30  LI 1 ZZ   -0.002882  -0.107183   0.000000   0.000000  -0.313311
   31  LI 1 XY    0.000000   0.000000   0.000000   0.000000   0.000000
   32  LI 1 XZ    0.000000   0.000000  -0.038791   0.017997   0.000000
   33  LI 1 YZ    0.000000   0.000000  -0.017997  -0.038791   0.000000
   34  LI 1 XX    0.187919  -0.111351   0.000000   0.000000   0.205133
   35  LI 1 YY    0.187919  -0.111351   0.000000   0.000000   0.205133
   36  LI 1 ZZ   -0.375837   0.222702   0.000000   0.000000  -0.410266
   37  LI 1 XY    0.000000   0.000000   0.000000   0.000000   0.000000
   38  LI 1 XZ    0.000000   0.000000   0.027543  -0.012778   0.000000
   39  LI 1 YZ    0.000000   0.000000   0.012778   0.027543   0.000000
   40  LI 1 XX   -0.198897  -0.133955   0.000000   0.000000   0.378432
   41  LI 1 YY   -0.198897  -0.133955   0.000000   0.000000   0.378432
   42  LI 1 ZZ    0.397794   0.267910   0.000000   0.000000  -0.756864
   43  LI 1 XY    0.000000   0.000000   0.000000   0.000000   0.000000
   44  LI 1 XZ    0.000000   0.000000  -0.220627   0.102359   0.000000
   45  LI 1 YZ    0.000000   0.000000  -0.102359  -0.220627   0.000000
   46  LI 1 XXX   0.000000   0.000000  -0.001615   0.000749   0.000000
   47  LI 1 YYY   0.000000   0.000000  -0.000749  -0.001615   0.000000
   48  LI 1 ZZZ   0.030026  -0.044806   0.000000   0.000000  -0.006313
   49  LI 1 XXY   0.000000   0.000000  -0.000335  -0.000722   0.000000
   50  LI 1 XXZ  -0.020142   0.030057   0.000000   0.000000   0.004235
   51  LI 1 YYX   0.000000   0.000000  -0.000722   0.000335   0.000000
   52  LI 1 YYZ  -0.020142   0.030057   0.000000   0.000000   0.004235
   53  LI 1 ZZX   0.000000   0.000000   0.002890  -0.001341   0.000000
   54  LI 1 ZZY   0.000000   0.000000   0.001341   0.002890   0.000000
   55  LI 1 XYZ   0.000000   0.000000   0.000000   0.000000   0.000000
   56  LI 1 XXX   0.000000   0.000000   0.014403  -0.006682   0.000000
   57  LI 1 YYY   0.000000   0.000000   0.006682   0.014403   0.000000
   58  LI 1 ZZZ  -0.141736   0.028679   0.000000   0.000000  -0.214450
   59  LI 1 XXY   0.000000   0.000000   0.002988   0.006441   0.000000
   60  LI 1 XXZ   0.095079  -0.019238   0.000000   0.000000   0.143858
   61  LI 1 YYX   0.000000   0.000000   0.006441  -0.002988   0.000000
   62  LI 1 YYZ   0.095079  -0.019238   0.000000   0.000000   0.143858
   63  LI 1 ZZX   0.000000   0.000000  -0.025765   0.011953   0.000000
   64  LI 1 ZZY   0.000000   0.000000  -0.011953  -0.025765   0.000000
   65  LI 1 XYZ   0.000000   0.000000   0.000000   0.000000   0.000000
   66  LI 1 XXX   0.000000   0.000000  -0.006654   0.003087   0.000000
   67  LI 1 YYY   0.000000   0.000000  -0.003087  -0.006654   0.000000
   68  LI 1 ZZZ   0.029705   0.145725   0.000000   0.000000  -0.108320
   69  LI 1 XXY   0.000000   0.000000  -0.001381  -0.002976   0.000000
   70  LI 1 XXZ  -0.019927  -0.097755   0.000000   0.000000   0.072663
   71  LI 1 YYX   0.000000   0.000000  -0.002976   0.001381   0.000000
   72  LI 1 YYZ  -0.019927  -0.097755   0.000000   0.000000   0.072663
   73  LI 1 ZZX   0.000000   0.000000   0.011902  -0.005522   0.000000
   74  LI 1 ZZY   0.000000   0.000000   0.005522   0.011902   0.000000
   75  LI 1 XYZ   0.000000   0.000000   0.000000   0.000000   0.000000
   76  LI 1XXXX  -0.004017  -0.011678   0.000000   0.000000  -0.004830
   77  LI 1YYYY  -0.004017  -0.011678   0.000000   0.000000  -0.004830
   78  LI 1ZZZZ  -0.010711  -0.031141   0.000000   0.000000  -0.012881
   79  LI 1XXXY   0.000000   0.000000   0.000000   0.000000   0.000000
   80  LI 1XXXZ   0.000000   0.000000   0.005116  -0.002374   0.000000
   81  LI 1YYYX   0.000000   0.000000   0.000000   0.000000   0.000000
   82  LI 1YYYZ   0.000000   0.000000   0.002374   0.005116   0.000000
   83  LI 1ZZZX   0.000000   0.000000  -0.006821   0.003165   0.000000
   84  LI 1ZZZY   0.000000   0.000000  -0.003165  -0.006821   0.000000
   85  LI 1XXYY  -0.002352  -0.006838   0.000000   0.000000  -0.002828
   86  LI 1XXZZ   0.009407   0.027351   0.000000   0.000000   0.011314
   87  LI 1YYZZ   0.009407   0.027351   0.000000   0.000000   0.011314
   88  LI 1XXYZ   0.000000   0.000000   0.001061   0.002288   0.000000
   89  LI 1YYXZ   0.000000   0.000000   0.002288  -0.001061   0.000000
   90  LI 1ZZXY   0.000000   0.000000   0.000000   0.000000   0.000000
   91  LI 1XXXX  -0.006817   0.029588   0.000000   0.000000  -0.030747
   92  LI 1YYYY  -0.006817   0.029588   0.000000   0.000000  -0.030747
   93  LI 1ZZZZ  -0.018179   0.078902   0.000000   0.000000  -0.081992
   94  LI 1XXXY   0.000000   0.000000   0.000000   0.000000   0.000000
   95  LI 1XXXZ   0.000000   0.000000   0.005322  -0.002469   0.000000
   96  LI 1YYYX   0.000000   0.000000   0.000000   0.000000   0.000000
   97  LI 1YYYZ   0.000000   0.000000   0.002469   0.005322   0.000000
   98  LI 1ZZZX   0.000000   0.000000  -0.007096   0.003292   0.000000
   99  LI 1ZZZY   0.000000   0.000000  -0.003292  -0.007096   0.000000
  100  LI 1XXYY  -0.003992   0.017325   0.000000   0.000000  -0.018004
  101  LI 1XXZZ   0.015967  -0.069301   0.000000   0.000000   0.072014
  102  LI 1YYZZ   0.015967  -0.069301   0.000000   0.000000   0.072014
  103  LI 1XXYZ   0.000000   0.000000   0.001104   0.002380   0.000000
  104  LI 1YYXZ   0.000000   0.000000   0.002380  -0.001104   0.000000
  105  LI 1ZZXY   0.000000   0.000000   0.000000   0.000000   0.000000
  106  H  2  S    0.008395   0.002393   0.000000   0.000000  -0.012276
  107  H  2  S    0.016229  -0.023345   0.000000   0.000000  -0.011024
  108  H  2  S    0.044437   0.098534   0.000000   0.000000  -0.192188
  109  H  2  S    0.856864  -0.518461   0.000000   0.000000   2.410582
  110  H  2  S   -0.916134  -0.262834   0.000000   0.000000  -1.196082
  111  H  2  X    0.000000   0.000000   0.000149  -0.000069   0.000000
  112  H  2  Y    0.000000   0.000000   0.000069   0.000149   0.000000
  113  H  2  Z    0.000532  -0.001566   0.000000   0.000000  -0.002080
  114  H  2  X    0.000000   0.000000   0.000756  -0.000351   0.000000
  115  H  2  Y    0.000000   0.000000   0.000351   0.000756   0.000000
  116  H  2  Z   -0.003221   0.007618   0.000000   0.000000   0.009089
  117  H  2  X    0.000000   0.000000   0.001501  -0.000697   0.000000
  118  H  2  Y    0.000000   0.000000   0.000697   0.001501   0.000000
  119  H  2  Z    0.011435  -0.034604   0.000000   0.000000  -0.028499
  120  H  2  X    0.000000   0.000000   0.043726  -0.020286   0.000000
  121  H  2  Y    0.000000   0.000000   0.020286   0.043726   0.000000
  122  H  2  Z   -0.242391  -0.070255   0.000000   0.000000  -0.610602
  123  H  2 XX   -0.000376  -0.000843   0.000000   0.000000  -0.001887
  124  H  2 YY   -0.000376  -0.000843   0.000000   0.000000  -0.001887
  125  H  2 ZZ    0.000752   0.001686   0.000000   0.000000   0.003774
  126  H  2 XY    0.000000   0.000000   0.000000   0.000000   0.000000
  127  H  2 XZ    0.000000   0.000000  -0.000870   0.000404   0.000000
  128  H  2 YZ    0.000000   0.000000  -0.000404  -0.000870   0.000000
  129  H  2 XX    0.001783   0.004177   0.000000   0.000000   0.009378
  130  H  2 YY    0.001783   0.004177   0.000000   0.000000   0.009378
  131  H  2 ZZ   -0.003565  -0.008355   0.000000   0.000000  -0.018756
  132  H  2 XY    0.000000   0.000000   0.000000   0.000000   0.000000
  133  H  2 XZ    0.000000   0.000000   0.003653  -0.001695   0.000000
  134  H  2 YZ    0.000000   0.000000   0.001695   0.003653   0.000000
  135  H  2 XX   -0.008377  -0.023797   0.000000   0.000000  -0.048153
  136  H  2 YY   -0.008377  -0.023797   0.000000   0.000000  -0.048153
  137  H  2 ZZ    0.016754   0.047593   0.000000   0.000000   0.096305
  138  H  2 XY    0.000000   0.000000   0.000000   0.000000   0.000000
  139  H  2 XZ    0.000000   0.000000  -0.014604   0.006775   0.000000
  140  H  2 YZ    0.000000   0.000000  -0.006775  -0.014604   0.000000
  141  H  2 XXX   0.000000   0.000000   0.000023  -0.000011   0.000000
  142  H  2 YYY   0.000000   0.000000   0.000011   0.000023   0.000000
  143  H  2 ZZZ   0.000188   0.000734   0.000000   0.000000   0.001086
  144  H  2 XXY   0.000000   0.000000   0.000005   0.000010   0.000000
  145  H  2 XXZ  -0.000126  -0.000492   0.000000   0.000000  -0.000729
  146  H  2 YYX   0.000000   0.000000   0.000010  -0.000005   0.000000
  147  H  2 YYZ  -0.000126  -0.000492   0.000000   0.000000  -0.000729
  148  H  2 ZZX   0.000000   0.000000  -0.000041   0.000019   0.000000
  149  H  2 ZZY   0.000000   0.000000  -0.000019  -0.000041   0.000000
  150  H  2 XYZ   0.000000   0.000000   0.000000   0.000000   0.000000
  151  H  2 XXX   0.000000   0.000000  -0.000359   0.000167   0.000000
  152  H  2 YYY   0.000000   0.000000  -0.000167  -0.000359   0.000000
  153  H  2 ZZZ  -0.001095  -0.004888   0.000000   0.000000  -0.006601
  154  H  2 XXY   0.000000   0.000000  -0.000075  -0.000161   0.000000
  155  H  2 XXZ   0.000735   0.003279   0.000000   0.000000   0.004428
  156  H  2 YYX   0.000000   0.000000  -0.000161   0.000075   0.000000
  157  H  2 YYZ   0.000735   0.003279   0.000000   0.000000   0.004428
  158  H  2 ZZX   0.000000   0.000000   0.000643  -0.000298   0.000000
  159  H  2 ZZY   0.000000   0.000000   0.000298   0.000643   0.000000
  160  H  2 XYZ   0.000000   0.000000   0.000000   0.000000   0.000000
  161  H  2XXXX   0.000021   0.000063   0.000000   0.000000  -0.000044
  162  H  2YYYY   0.000021   0.000063   0.000000   0.000000  -0.000044
  163  H  2ZZZZ   0.000055   0.000167   0.000000   0.000000  -0.000118
  164  H  2XXXY   0.000000   0.000000   0.000000   0.000000   0.000000
  165  H  2XXXZ   0.000000   0.000000  -0.000036   0.000017   0.000000
  166  H  2YYYX   0.000000   0.000000   0.000000   0.000000   0.000000
  167  H  2YYYZ   0.000000   0.000000  -0.000017  -0.000036   0.000000
  168  H  2ZZZX   0.000000   0.000000   0.000048  -0.000022   0.000000
  169  H  2ZZZY   0.000000   0.000000   0.000022   0.000048   0.000000
  170  H  2XXYY   0.000012   0.000037   0.000000   0.000000  -0.000026
  171  H  2XXZZ  -0.000048  -0.000147   0.000000   0.000000   0.000104
  172  H  2YYZZ  -0.000048  -0.000147   0.000000   0.000000   0.000104
  173  H  2XXYZ   0.000000   0.000000  -0.000007  -0.000016   0.000000
  174  H  2YYXZ   0.000000   0.000000  -0.000016   0.000007   0.000000
  175  H  2ZZXY   0.000000   0.000000   0.000000   0.000000   0.000000

                     11         12         13         14         15
                    0.1667     0.1667     0.1739     0.1739     0.1997
                     A          A          A          A          A   
    1  LI 1  S    0.000000   0.000000   0.000000   0.000000  -0.048462
    2  LI 1  S    0.000000   0.000000   0.000000   0.000000  -0.074629
    3  LI 1  S    0.000000   0.000000   0.000000   0.000000  -0.061504
    4  LI 1  S    0.000000   0.000000   0.000000   0.000000   0.694906
    5  LI 1  S    0.000000   0.000000   0.000000   0.000000  -5.720750
    6  LI 1  S    0.000000   0.000000   0.000000   0.000000   0.438208
    7  LI 1  X    0.000000   0.000000   0.003150   0.008723   0.000000
    8  LI 1  Y    0.000000   0.000000   0.008723  -0.003150   0.000000
    9  LI 1  Z    0.000000   0.000000   0.000000   0.000000   0.020251
   10  LI 1  X    0.000000   0.000000   0.014600   0.040433   0.000000
   11  LI 1  Y    0.000000   0.000000   0.040433  -0.014600   0.000000
   12  LI 1  Z    0.000000   0.000000   0.000000   0.000000   0.088588
   13  LI 1  X    0.000000   0.000000   0.010400   0.028804   0.000000
   14  LI 1  Y    0.000000   0.000000   0.028804  -0.010400   0.000000
   15  LI 1  Z    0.000000   0.000000   0.000000   0.000000   0.488814
   16  LI 1  X    0.000000   0.000000   0.086160   0.238620   0.000000
   17  LI 1  Y    0.000000   0.000000   0.238620  -0.086160   0.000000
   18  LI 1  Z    0.000000   0.000000   0.000000   0.000000  -5.284166
   19  LI 1  X    0.000000   0.000000  -0.040324  -0.111677   0.000000
   20  LI 1  Y    0.000000   0.000000  -0.111677   0.040324   0.000000
   21  LI 1  Z    0.000000   0.000000   0.000000   0.000000   1.368971
   22  LI 1 XX   -0.046744   0.043888   0.000000   0.000000  -0.021640
   23  LI 1 YY    0.046744  -0.043888   0.000000   0.000000  -0.021640
   24  LI 1 ZZ    0.000000   0.000000   0.000000   0.000000   0.043279
   25  LI 1 XY   -0.050677  -0.053975   0.000000   0.000000   0.000000
   26  LI 1 XZ    0.000000   0.000000  -0.025280  -0.070011   0.000000
   27  LI 1 YZ    0.000000   0.000000  -0.070011   0.025280   0.000000
   28  LI 1 XX    0.173463  -0.162865   0.000000   0.000000   0.092479
   29  LI 1 YY   -0.173463   0.162865   0.000000   0.000000   0.092479
   30  LI 1 ZZ    0.000000   0.000000   0.000000   0.000000  -0.184957
   31  LI 1 XY    0.188060   0.200298   0.000000   0.000000   0.000000
   32  LI 1 XZ    0.000000   0.000000   0.095076   0.263312   0.000000
   33  LI 1 YZ    0.000000   0.000000   0.263312  -0.095076   0.000000
   34  LI 1 XX   -0.364362   0.342100   0.000000   0.000000  -0.396693
   35  LI 1 YY    0.364362  -0.342100   0.000000   0.000000  -0.396693
   36  LI 1 ZZ    0.000000   0.000000   0.000000   0.000000   0.793386
   37  LI 1 XY   -0.395023  -0.420729   0.000000   0.000000   0.000000
   38  LI 1 XZ    0.000000   0.000000  -0.202940  -0.562038   0.000000
   39  LI 1 YZ    0.000000   0.000000  -0.562038   0.202940   0.000000
   40  LI 1 XX    0.824885  -0.774487   0.000000   0.000000   1.252812
   41  LI 1 YY   -0.824885   0.774487   0.000000   0.000000   1.252812
   42  LI 1 ZZ    0.000000   0.000000   0.000000   0.000000  -2.505624
   43  LI 1 XY    0.894300   0.952495   0.000000   0.000000   0.000000
   44  LI 1 XZ    0.000000   0.000000   0.430403   1.191992   0.000000
   45  LI 1 YZ    0.000000   0.000000   1.191992  -0.430403   0.000000
   46  LI 1 XXX   0.000000   0.000000   0.005898   0.016335   0.000000
   47  LI 1 YYY   0.000000   0.000000   0.016335  -0.005898   0.000000
   48  LI 1 ZZZ   0.000000   0.000000   0.000000   0.000000  -0.094671
   49  LI 1 XXY   0.000000   0.000000   0.007305  -0.002638   0.000000
   50  LI 1 XXZ  -0.020585   0.019327   0.000000   0.000000   0.063508
   51  LI 1 YYX   0.000000   0.000000   0.002638   0.007305   0.000000
   52  LI 1 YYZ   0.020585  -0.019327   0.000000   0.000000   0.063508
   53  LI 1 ZZX   0.000000   0.000000  -0.010551  -0.029221   0.000000
   54  LI 1 ZZY   0.000000   0.000000  -0.029221   0.010551   0.000000
   55  LI 1 XYZ  -0.022317  -0.023769   0.000000   0.000000   0.000000
   56  LI 1 XXX   0.000000   0.000000  -0.016709  -0.046275   0.000000
   57  LI 1 YYY   0.000000   0.000000  -0.046275   0.016709   0.000000
   58  LI 1 ZZZ   0.000000   0.000000   0.000000   0.000000   0.287876
   59  LI 1 XXY   0.000000   0.000000  -0.020695   0.007472   0.000000
   60  LI 1 XXZ   0.050524  -0.047437   0.000000   0.000000  -0.193113
   61  LI 1 YYX   0.000000   0.000000  -0.007472  -0.020695   0.000000
   62  LI 1 YYZ  -0.050524   0.047437   0.000000   0.000000  -0.193113
   63  LI 1 ZZX   0.000000   0.000000   0.029890   0.082780   0.000000
   64  LI 1 ZZY   0.000000   0.000000   0.082780  -0.029890   0.000000
   65  LI 1 XYZ   0.054775   0.058340   0.000000   0.000000   0.000000
   66  LI 1 XXX   0.000000   0.000000   0.037146   0.102875   0.000000
   67  LI 1 YYY   0.000000   0.000000   0.102875  -0.037146   0.000000
   68  LI 1 ZZZ   0.000000   0.000000   0.000000   0.000000  -0.223261
   69  LI 1 XXY   0.000000   0.000000   0.046007  -0.016612   0.000000
   70  LI 1 XXZ  -0.089042   0.083602   0.000000   0.000000   0.149768
   71  LI 1 YYX   0.000000   0.000000   0.016612   0.046007   0.000000
   72  LI 1 YYZ   0.089042  -0.083602   0.000000   0.000000   0.149768
   73  LI 1 ZZX   0.000000   0.000000  -0.066449  -0.184028   0.000000
   74  LI 1 ZZY   0.000000   0.000000  -0.184028   0.066449   0.000000
   75  LI 1 XYZ  -0.096535  -0.102817   0.000000   0.000000   0.000000
   76  LI 1XXXX  -0.000339   0.000319   0.000000   0.000000   0.007911
   77  LI 1YYYY   0.000339  -0.000319   0.000000   0.000000   0.007911
   78  LI 1ZZZZ   0.000000   0.000000   0.000000   0.000000   0.021096
   79  LI 1XXXY  -0.000241  -0.000257   0.000000   0.000000   0.000000
   80  LI 1XXXZ   0.000000   0.000000  -0.001597  -0.004422   0.000000
   81  LI 1YYYX  -0.000241  -0.000257   0.000000   0.000000   0.000000
   82  LI 1YYYZ   0.000000   0.000000  -0.004422   0.001597   0.000000
   83  LI 1ZZZX   0.000000   0.000000   0.002129   0.005897   0.000000
   84  LI 1ZZZY   0.000000   0.000000   0.005897  -0.002129   0.000000
   85  LI 1XXYY   0.000000   0.000000   0.000000   0.000000   0.004632
   86  LI 1XXZZ   0.000596  -0.000560   0.000000   0.000000  -0.018529
   87  LI 1YYZZ  -0.000596   0.000560   0.000000   0.000000  -0.018529
   88  LI 1XXYZ   0.000000   0.000000  -0.001978   0.000714   0.000000
   89  LI 1YYXZ   0.000000   0.000000  -0.000714  -0.001978   0.000000
   90  LI 1ZZXY   0.000646   0.000688   0.000000   0.000000   0.000000
   91  LI 1XXXX   0.001431  -0.001343   0.000000   0.000000  -0.001457
   92  LI 1YYYY  -0.001431   0.001343   0.000000   0.000000  -0.001457
   93  LI 1ZZZZ   0.000000   0.000000   0.000000   0.000000  -0.003886
   94  LI 1XXXY   0.001016   0.001082   0.000000   0.000000   0.000000
   95  LI 1XXXZ   0.000000   0.000000   0.005437   0.015058   0.000000
   96  LI 1YYYX   0.001016   0.001082   0.000000   0.000000   0.000000
   97  LI 1YYYZ   0.000000   0.000000   0.015058  -0.005437   0.000000
   98  LI 1ZZZX   0.000000   0.000000  -0.007249  -0.020077   0.000000
   99  LI 1ZZZY   0.000000   0.000000  -0.020077   0.007249   0.000000
  100  LI 1XXYY   0.000000   0.000000   0.000000   0.000000  -0.000853
  101  LI 1XXZZ  -0.002513   0.002360   0.000000   0.000000   0.003413
  102  LI 1YYZZ   0.002513  -0.002360   0.000000   0.000000   0.003413
  103  LI 1XXYZ   0.000000   0.000000   0.006734  -0.002432   0.000000
  104  LI 1YYXZ   0.000000   0.000000   0.002432   0.006734   0.000000
  105  LI 1ZZXY  -0.002725  -0.002902   0.000000   0.000000   0.000000
  106  H  2  S    0.000000   0.000000   0.000000   0.000000   0.010269
  107  H  2  S    0.000000   0.000000   0.000000   0.000000   0.003988
  108  H  2  S    0.000000   0.000000   0.000000   0.000000   0.113828
  109  H  2  S    0.000000   0.000000   0.000000   0.000000  -1.179268
  110  H  2  S    0.000000   0.000000   0.000000   0.000000   7.017067
  111  H  2  X    0.000000   0.000000   0.000201   0.000558   0.000000
  112  H  2  Y    0.000000   0.000000   0.000558  -0.000201   0.000000
  113  H  2  Z    0.000000   0.000000   0.000000   0.000000  -0.000329
  114  H  2  X    0.000000   0.000000   0.000254   0.000705   0.000000
  115  H  2  Y    0.000000   0.000000   0.000705  -0.000254   0.000000
  116  H  2  Z    0.000000   0.000000   0.000000   0.000000   0.000253
  117  H  2  X    0.000000   0.000000   0.001546   0.004283   0.000000
  118  H  2  Y    0.000000   0.000000   0.004283  -0.001546   0.000000
  119  H  2  Z    0.000000   0.000000   0.000000   0.000000  -0.013388
  120  H  2  X    0.000000   0.000000   0.016266   0.045049   0.000000
  121  H  2  Y    0.000000   0.000000   0.045049  -0.016266   0.000000
  122  H  2  Z    0.000000   0.000000   0.000000   0.000000   0.154085
  123  H  2 XX    0.000289  -0.000271   0.000000   0.000000   0.000026
  124  H  2 YY   -0.000289   0.000271   0.000000   0.000000   0.000026
  125  H  2 ZZ    0.000000   0.000000   0.000000   0.000000  -0.000051
  126  H  2 XY    0.000313   0.000334   0.000000   0.000000   0.000000
  127  H  2 XZ    0.000000   0.000000  -0.000354  -0.000981   0.000000
  128  H  2 YZ    0.000000   0.000000  -0.000981   0.000354   0.000000
  129  H  2 XX   -0.001045   0.000981   0.000000   0.000000  -0.000195
  130  H  2 YY    0.001045  -0.000981   0.000000   0.000000  -0.000195
  131  H  2 ZZ    0.000000   0.000000   0.000000   0.000000   0.000390
  132  H  2 XY   -0.001133  -0.001207   0.000000   0.000000   0.000000
  133  H  2 XZ    0.000000   0.000000   0.001207   0.003344   0.000000
  134  H  2 YZ    0.000000   0.000000   0.003344  -0.001207   0.000000
  135  H  2 XX    0.002883  -0.002707   0.000000   0.000000  -0.006451
  136  H  2 YY   -0.002883   0.002707   0.000000   0.000000  -0.006451
  137  H  2 ZZ    0.000000   0.000000   0.000000   0.000000   0.012901
  138  H  2 XY    0.003126   0.003329   0.000000   0.000000   0.000000
  139  H  2 XZ    0.000000   0.000000   0.000492   0.001362   0.000000
  140  H  2 YZ    0.000000   0.000000   0.001362  -0.000492   0.000000
  141  H  2 XXX   0.000000   0.000000  -0.000244  -0.000676   0.000000
  142  H  2 YYY   0.000000   0.000000  -0.000676   0.000244   0.000000
  143  H  2 ZZZ   0.000000   0.000000   0.000000   0.000000   0.000131
  144  H  2 XXY   0.000000   0.000000  -0.000302   0.000109   0.000000
  145  H  2 XXZ  -0.000129   0.000121   0.000000   0.000000  -0.000088
  146  H  2 YYX   0.000000   0.000000  -0.000109  -0.000302   0.000000
  147  H  2 YYZ   0.000129  -0.000121   0.000000   0.000000  -0.000088
  148  H  2 ZZX   0.000000   0.000000   0.000437   0.001210   0.000000
  149  H  2 ZZY   0.000000   0.000000   0.001210  -0.000437   0.000000
  150  H  2 XYZ  -0.000140  -0.000149   0.000000   0.000000   0.000000
  151  H  2 XXX   0.000000   0.000000   0.001249   0.003459   0.000000
  152  H  2 YYY   0.000000   0.000000   0.003459  -0.001249   0.000000
  153  H  2 ZZZ   0.000000   0.000000   0.000000   0.000000  -0.001377
  154  H  2 XXY   0.000000   0.000000   0.001547  -0.000559   0.000000
  155  H  2 XXZ   0.000691  -0.000649   0.000000   0.000000   0.000924
  156  H  2 YYX   0.000000   0.000000   0.000559   0.001547   0.000000
  157  H  2 YYZ  -0.000691   0.000649   0.000000   0.000000   0.000924
  158  H  2 ZZX   0.000000   0.000000  -0.002234  -0.006188   0.000000
  159  H  2 ZZY   0.000000   0.000000  -0.006188   0.002234   0.000000
  160  H  2 XYZ   0.000749   0.000798   0.000000   0.000000   0.000000
  161  H  2XXXX   0.000040  -0.000037   0.000000   0.000000  -0.000087
  162  H  2YYYY  -0.000040   0.000037   0.000000   0.000000  -0.000087
  163  H  2ZZZZ   0.000000   0.000000   0.000000   0.000000  -0.000232
  164  H  2XXXY   0.000028   0.000030   0.000000   0.000000   0.000000
  165  H  2XXXZ   0.000000   0.000000   0.000010   0.000028   0.000000
  166  H  2YYYX   0.000028   0.000030   0.000000   0.000000   0.000000
  167  H  2YYYZ   0.000000   0.000000   0.000028  -0.000010   0.000000
  168  H  2ZZZX   0.000000   0.000000  -0.000014  -0.000038   0.000000
  169  H  2ZZZY   0.000000   0.000000  -0.000038   0.000014   0.000000
  170  H  2XXYY   0.000000   0.000000   0.000000   0.000000  -0.000051
  171  H  2XXZZ  -0.000070   0.000066   0.000000   0.000000   0.000204
  172  H  2YYZZ   0.000070  -0.000066   0.000000   0.000000   0.000204
  173  H  2XXYZ   0.000000   0.000000   0.000013  -0.000005   0.000000
  174  H  2YYXZ   0.000000   0.000000   0.000005   0.000013   0.000000
  175  H  2ZZXY  -0.000076  -0.000081   0.000000   0.000000   0.000000

                     16         17         18         19         20
                    0.2738     0.2738     0.2789     0.3153     0.3986
                     A          A          A          A          A   
    1  LI 1  S    0.000000   0.000000  -0.009409   0.098744   0.000000
    2  LI 1  S    0.000000   0.000000  -0.191464   0.029797   0.000000
    3  LI 1  S    0.000000   0.000000   0.115568   0.400827   0.000000
    4  LI 1  S    0.000000   0.000000  -1.742719  -4.367163   0.000000
    5  LI 1  S    0.000000   0.000000   8.537098  -3.362304   0.000000
    6  LI 1  S    0.000000   0.000000  -2.193111  -0.557123   0.000000
    7  LI 1  X   -0.092312   0.051153   0.000000   0.000000   0.000000
    8  LI 1  Y   -0.051153  -0.092312   0.000000   0.000000   0.000000
    9  LI 1  Z    0.000000   0.000000   0.067921   0.006865   0.000000
   10  LI 1  X    0.182133  -0.100924   0.000000   0.000000   0.000000
   11  LI 1  Y    0.100924   0.182133   0.000000   0.000000   0.000000
   12  LI 1  Z    0.000000   0.000000  -0.342210  -0.479382   0.000000
   13  LI 1  X   -1.826330   1.012014   0.000000   0.000000   0.000000
   14  LI 1  Y   -1.012014  -1.826330   0.000000   0.000000   0.000000
   15  LI 1  Z    0.000000   0.000000   4.146033  -4.002666   0.000000
   16  LI 1  X    2.071085  -1.147638   0.000000   0.000000   0.000000
   17  LI 1  Y    1.147638   2.071085   0.000000   0.000000   0.000000
   18  LI 1  Z    0.000000   0.000000   1.097779  -2.339416   0.000000
   19  LI 1  X   -0.866411   0.480099   0.000000   0.000000   0.000000
   20  LI 1  Y   -0.480099  -0.866411   0.000000   0.000000   0.000000
   21  LI 1  Z    0.000000   0.000000   0.000151   0.049691   0.000000
   22  LI 1 XX    0.000000   0.000000  -0.007034  -0.026481   0.000000
   23  LI 1 YY    0.000000   0.000000  -0.007034  -0.026481   0.000000
   24  LI 1 ZZ    0.000000   0.000000   0.014069   0.052963   0.000000
   25  LI 1 XY    0.000000   0.000000   0.000000   0.000000   0.000000
   26  LI 1 XZ    0.016099  -0.008921   0.000000   0.000000   0.000000
   27  LI 1 YZ    0.008921   0.016099   0.000000   0.000000   0.000000
   28  LI 1 XX    0.000000   0.000000   0.102977   0.222410   0.000000
   29  LI 1 YY    0.000000   0.000000   0.102977   0.222410   0.000000
   30  LI 1 ZZ    0.000000   0.000000  -0.205954  -0.444820   0.000000
   31  LI 1 XY    0.000000   0.000000   0.000000   0.000000   0.000000
   32  LI 1 XZ   -0.044424   0.024616   0.000000   0.000000   0.000000
   33  LI 1 YZ   -0.024616  -0.044424   0.000000   0.000000   0.000000
   34  LI 1 XX    0.000000   0.000000  -0.589700   0.394350   0.000000
   35  LI 1 YY    0.000000   0.000000  -0.589700   0.394350   0.000000
   36  LI 1 ZZ    0.000000   0.000000   1.179400  -0.788701   0.000000
   37  LI 1 XY    0.000000   0.000000   0.000000   0.000000   0.000000
   38  LI 1 XZ    0.087738  -0.048618   0.000000   0.000000   0.000000
   39  LI 1 YZ    0.048618   0.087738   0.000000   0.000000   0.000000
   40  LI 1 XX    0.000000   0.000000  -0.760157   0.937393   0.000000
   41  LI 1 YY    0.000000   0.000000  -0.760157   0.937393   0.000000
   42  LI 1 ZZ    0.000000   0.000000   1.520313  -1.874785   0.000000
   43  LI 1 XY    0.000000   0.000000   0.000000   0.000000   0.000000
   44  LI 1 XZ   -0.033216   0.018406   0.000000   0.000000   0.000000
   45  LI 1 YZ   -0.018406  -0.033216   0.000000   0.000000   0.000000
   46  LI 1 XXX   0.008043  -0.004457   0.000000   0.000000  -0.016345
   47  LI 1 YYY   0.004457   0.008043   0.000000   0.000000  -0.256599
   48  LI 1 ZZZ   0.000000   0.000000  -0.126363  -0.032238   0.000000
   49  LI 1 XXY   0.001993   0.003597   0.000000   0.000000   0.344264
   50  LI 1 XXZ   0.000000   0.000000   0.084767   0.021626   0.000000
   51  LI 1 YYX   0.003597  -0.001993   0.000000   0.000000   0.021930
   52  LI 1 YYZ   0.000000   0.000000   0.084767   0.021626   0.000000
   53  LI 1 ZZX  -0.014387   0.007972   0.000000   0.000000   0.000000
   54  LI 1 ZZY  -0.007972  -0.014387   0.000000   0.000000   0.000000
   55  LI 1 XYZ   0.000000   0.000000   0.000000   0.000000   0.000000
   56  LI 1 XXX   0.005483  -0.003038   0.000000   0.000000   0.041928
   57  LI 1 YYY   0.003038   0.005483   0.000000   0.000000   0.658212
   58  LI 1 ZZZ   0.000000   0.000000   0.213353  -0.357031   0.000000
   59  LI 1 XXY   0.001359   0.002452   0.000000   0.000000  -0.883084
   60  LI 1 XXZ   0.000000   0.000000  -0.143122   0.239504   0.000000
   61  LI 1 YYX   0.002452  -0.001359   0.000000   0.000000  -0.056253
   62  LI 1 YYZ   0.000000   0.000000  -0.143122   0.239504   0.000000
   63  LI 1 ZZX  -0.009808   0.005435   0.000000   0.000000   0.000000
   64  LI 1 ZZY  -0.005435  -0.009808   0.000000   0.000000   0.000000
   65  LI 1 XYZ   0.000000   0.000000   0.000000   0.000000   0.000000
   66  LI 1 XXX   0.047878  -0.026530   0.000000   0.000000  -0.072015
   67  LI 1 YYY   0.026530   0.047878   0.000000   0.000000  -1.130533
   68  LI 1 ZZZ   0.000000   0.000000   0.728593  -0.070451   0.000000
   69  LI 1 XXY   0.011865   0.021412   0.000000   0.000000   1.516769
   70  LI 1 XXZ   0.000000   0.000000  -0.488755   0.047260   0.000000
   71  LI 1 YYX   0.021412  -0.011865   0.000000   0.000000   0.096619
   72  LI 1 YYZ   0.000000   0.000000  -0.488755   0.047260   0.000000
   73  LI 1 ZZX  -0.085647   0.047459   0.000000   0.000000   0.000000
   74  LI 1 ZZY  -0.047459  -0.085647   0.000000   0.000000   0.000000
   75  LI 1 XYZ   0.000000   0.000000   0.000000   0.000000   0.000000
   76  LI 1XXXX   0.000000   0.000000  -0.033543  -0.023632   0.000000
   77  LI 1YYYY   0.000000   0.000000  -0.033543  -0.023632   0.000000
   78  LI 1ZZZZ   0.000000   0.000000  -0.089447  -0.063018   0.000000
   79  LI 1XXXY   0.000000   0.000000   0.000000   0.000000   0.000000
   80  LI 1XXXZ   0.010900  -0.006040   0.000000   0.000000  -0.001082
   81  LI 1YYYX   0.000000   0.000000   0.000000   0.000000   0.000000
   82  LI 1YYYZ   0.006040   0.010900   0.000000   0.000000  -0.016986
   83  LI 1ZZZX  -0.014533   0.008053   0.000000   0.000000   0.000000
   84  LI 1ZZZY  -0.008053  -0.014533   0.000000   0.000000   0.000000
   85  LI 1XXYY   0.000000   0.000000  -0.019641  -0.013837   0.000000
   86  LI 1XXZZ   0.000000   0.000000   0.078562   0.055349   0.000000
   87  LI 1YYZZ   0.000000   0.000000   0.078562   0.055349   0.000000
   88  LI 1XXYZ   0.002701   0.004875   0.000000   0.000000   0.022789
   89  LI 1YYXZ   0.004875  -0.002701   0.000000   0.000000   0.001452
   90  LI 1ZZXY   0.000000   0.000000   0.000000   0.000000   0.000000
   91  LI 1XXXX   0.000000   0.000000   0.126680  -0.019615   0.000000
   92  LI 1YYYY   0.000000   0.000000   0.126680  -0.019615   0.000000
   93  LI 1ZZZZ   0.000000   0.000000   0.337813  -0.052306   0.000000
   94  LI 1XXXY   0.000000   0.000000   0.000000   0.000000   0.000000
   95  LI 1XXXZ   0.025452  -0.014103   0.000000   0.000000   0.004020
   96  LI 1YYYX   0.000000   0.000000   0.000000   0.000000   0.000000
   97  LI 1YYYZ   0.014103   0.025452   0.000000   0.000000   0.063114
   98  LI 1ZZZX  -0.033935   0.018804   0.000000   0.000000   0.000000
   99  LI 1ZZZY  -0.018804  -0.033935   0.000000   0.000000   0.000000
  100  LI 1XXYY   0.000000   0.000000   0.074176  -0.011485   0.000000
  101  LI 1XXZZ   0.000000   0.000000  -0.296704   0.045941   0.000000
  102  LI 1YYZZ   0.000000   0.000000  -0.296704   0.045941   0.000000
  103  LI 1XXYZ   0.006307   0.011382   0.000000   0.000000  -0.084677
  104  LI 1YYXZ   0.011382  -0.006307   0.000000   0.000000  -0.005394
  105  LI 1ZZXY   0.000000   0.000000   0.000000   0.000000   0.000000
  106  H  2  S    0.000000   0.000000  -0.000901   0.003802   0.000000
  107  H  2  S    0.000000   0.000000  -0.061137  -0.108757   0.000000
  108  H  2  S    0.000000   0.000000   0.221257   0.316935   0.000000
  109  H  2  S    0.000000   0.000000  -3.288225   1.947085   0.000000
  110  H  2  S    0.000000   0.000000  -4.520298   8.440460   0.000000
  111  H  2  X   -0.000521   0.000289   0.000000   0.000000   0.000000
  112  H  2  Y   -0.000289  -0.000521   0.000000   0.000000   0.000000
  113  H  2  Z    0.000000   0.000000  -0.006250   0.004703   0.000000
  114  H  2  X    0.000738  -0.000409   0.000000   0.000000   0.000000
  115  H  2  Y    0.000409   0.000738   0.000000   0.000000   0.000000
  116  H  2  Z    0.000000   0.000000   0.032607  -0.015027   0.000000
  117  H  2  X   -0.013256   0.007345   0.000000   0.000000   0.000000
  118  H  2  Y   -0.007345  -0.013256   0.000000   0.000000   0.000000
  119  H  2  Z    0.000000   0.000000  -0.139993   0.076212   0.000000
  120  H  2  X    0.111785  -0.061943   0.000000   0.000000   0.000000
  121  H  2  Y    0.061943   0.111785   0.000000   0.000000   0.000000
  122  H  2  Z    0.000000   0.000000   0.404545  -1.395304   0.000000
  123  H  2 XX    0.000000   0.000000  -0.001490  -0.002766   0.000000
  124  H  2 YY    0.000000   0.000000  -0.001490  -0.002766   0.000000
  125  H  2 ZZ    0.000000   0.000000   0.002981   0.005531   0.000000
  126  H  2 XY    0.000000   0.000000   0.000000   0.000000   0.000000
  127  H  2 XZ   -0.002255   0.001249   0.000000   0.000000   0.000000
  128  H  2 YZ   -0.001249  -0.002255   0.000000   0.000000   0.000000
  129  H  2 XX    0.000000   0.000000   0.007261   0.014217   0.000000
  130  H  2 YY    0.000000   0.000000   0.007261   0.014217   0.000000
  131  H  2 ZZ    0.000000   0.000000  -0.014521  -0.028434   0.000000
  132  H  2 XY    0.000000   0.000000   0.000000   0.000000   0.000000
  133  H  2 XZ    0.010635  -0.005893   0.000000   0.000000   0.000000
  134  H  2 YZ    0.005893   0.010635   0.000000   0.000000   0.000000
  135  H  2 XX    0.000000   0.000000  -0.043457  -0.082291   0.000000
  136  H  2 YY    0.000000   0.000000  -0.043457  -0.082291   0.000000
  137  H  2 ZZ    0.000000   0.000000   0.086914   0.164583   0.000000
  138  H  2 XY    0.000000   0.000000   0.000000   0.000000   0.000000
  139  H  2 XZ   -0.033254   0.018427   0.000000   0.000000   0.000000
  140  H  2 YZ   -0.018427  -0.033254   0.000000   0.000000   0.000000
  141  H  2 XXX  -0.000017   0.000010   0.000000   0.000000   0.000013
  142  H  2 YYY  -0.000010  -0.000017   0.000000   0.000000   0.000197
  143  H  2 ZZZ   0.000000   0.000000   0.001230   0.001862   0.000000
  144  H  2 XXY  -0.000004  -0.000008   0.000000   0.000000  -0.000264
  145  H  2 XXZ   0.000000   0.000000  -0.000825  -0.001249   0.000000
  146  H  2 YYX  -0.000008   0.000004   0.000000   0.000000  -0.000017
  147  H  2 YYZ   0.000000   0.000000  -0.000825  -0.001249   0.000000
  148  H  2 ZZX   0.000031  -0.000017   0.000000   0.000000   0.000000
  149  H  2 ZZY   0.000017   0.000031   0.000000   0.000000   0.000000
  150  H  2 XYZ   0.000000   0.000000   0.000000   0.000000   0.000000
  151  H  2 XXX  -0.000214   0.000119   0.000000   0.000000  -0.000073
  152  H  2 YYY  -0.000119  -0.000214   0.000000   0.000000  -0.001149
  153  H  2 ZZZ   0.000000   0.000000  -0.009463  -0.012308   0.000000
  154  H  2 XXY  -0.000053  -0.000096   0.000000   0.000000   0.001541
  155  H  2 XXZ   0.000000   0.000000   0.006348   0.008256   0.000000
  156  H  2 YYX  -0.000096   0.000053   0.000000   0.000000   0.000098
  157  H  2 YYZ   0.000000   0.000000   0.006348   0.008256   0.000000
  158  H  2 ZZX   0.000383  -0.000212   0.000000   0.000000   0.000000
  159  H  2 ZZY   0.000212   0.000383   0.000000   0.000000   0.000000
  160  H  2 XYZ   0.000000   0.000000   0.000000   0.000000   0.000000
  161  H  2XXXX   0.000000   0.000000   0.000149   0.000057   0.000000
  162  H  2YYYY   0.000000   0.000000   0.000149   0.000057   0.000000
  163  H  2ZZZZ   0.000000   0.000000   0.000398   0.000151   0.000000
  164  H  2XXXY   0.000000   0.000000   0.000000   0.000000   0.000000
  165  H  2XXXZ  -0.000065   0.000036   0.000000   0.000000   0.000003
  166  H  2YYYX   0.000000   0.000000   0.000000   0.000000   0.000000
  167  H  2YYYZ  -0.000036  -0.000065   0.000000   0.000000   0.000041
  168  H  2ZZZX   0.000087  -0.000048   0.000000   0.000000   0.000000
  169  H  2ZZZY   0.000048   0.000087   0.000000   0.000000   0.000000
  170  H  2XXYY   0.000000   0.000000   0.000087   0.000033   0.000000
  171  H  2XXZZ   0.000000   0.000000  -0.000349  -0.000133   0.000000
  172  H  2YYZZ   0.000000   0.000000  -0.000349  -0.000133   0.000000
  173  H  2XXYZ  -0.000016  -0.000029   0.000000   0.000000  -0.000055
  174  H  2YYXZ  -0.000029   0.000016   0.000000   0.000000  -0.000003
[...]
   95  LI 1XXXZ  -0.003480   0.000000   0.016367   0.181776   0.000000
   96  LI 1YYYX   0.000000   0.000000   0.000000   0.000000   0.000000
   97  LI 1YYYZ   0.118562   0.000000   0.181776  -0.016367   0.000000
   98  LI 1ZZZX   0.004641   0.000000  -0.021823  -0.242368   0.000000
   99  LI 1ZZZY  -0.158083   0.000000  -0.242368   0.021823   0.000000
  100  LI 1XXYY   0.000000  -0.045964   0.000000   0.000000  -0.002342
  101  LI 1XXZZ   0.000000   0.183858   0.000000   0.000000   0.009366
  102  LI 1YYZZ   0.000000   0.183858   0.000000   0.000000   0.009366
  103  LI 1XXYZ   0.053023   0.000000   0.081293  -0.007320   0.000000
  104  LI 1YYXZ  -0.001556   0.000000   0.007320   0.081293   0.000000
  105  LI 1ZZXY   0.000000   0.000000   0.000000   0.000000   0.000000
  106  H  2  S    0.000000  -0.146387   0.000000   0.000000  -0.263214
  107  H  2  S    0.000000   0.420335   0.000000   0.000000   0.788399
  108  H  2  S    0.000000  -1.824412   0.000000   0.000000  -1.745941
  109  H  2  S    0.000000   6.775687   0.000000   0.000000   0.526821
  110  H  2  S    0.000000   0.373574   0.000000   0.000000   0.710832
  111  H  2  X    0.000238   0.000000  -0.166008  -1.843680   0.000000
  112  H  2  Y   -0.008110   0.000000  -1.843680   0.166008   0.000000
  113  H  2  Z    0.000000  -0.078995   0.000000   0.000000   1.880176
  114  H  2  X   -0.000223   0.000000   0.200842   2.230540   0.000000
  115  H  2  Y    0.007602   0.000000   2.230540  -0.200842   0.000000
  116  H  2  Z    0.000000  -0.051612   0.000000   0.000000  -2.452152
  117  H  2  X    0.002228   0.000000  -0.147433  -1.637383   0.000000
  118  H  2  Y   -0.075893   0.000000  -1.637383   0.147433   0.000000
  119  H  2  Z    0.000000   0.695443   0.000000   0.000000   2.261462
  120  H  2  X   -0.040348   0.000000   0.074968   0.832589   0.000000
  121  H  2  Y    1.374453   0.000000   0.832589  -0.074968   0.000000
  122  H  2  Z    0.000000  -2.824266   0.000000   0.000000  -0.615259
  123  H  2 XX    0.000000  -0.815581   0.000000   0.000000  -0.067814
  124  H  2 YY    0.000000  -0.815581   0.000000   0.000000  -0.067814
  125  H  2 ZZ    0.000000   1.631162   0.000000   0.000000   0.135627
  126  H  2 XY    0.000000   0.000000   0.000000   0.000000   0.000000
  127  H  2 XZ    0.047520   0.000000  -0.001137  -0.012625   0.000000
  128  H  2 YZ   -1.618769   0.000000  -0.012625   0.001137   0.000000
  129  H  2 XX    0.000000   0.923530   0.000000   0.000000   0.086822
  130  H  2 YY    0.000000   0.923530   0.000000   0.000000   0.086822
  131  H  2 ZZ    0.000000  -1.847059   0.000000   0.000000  -0.173643
  132  H  2 XY    0.000000   0.000000   0.000000   0.000000   0.000000
  133  H  2 XZ   -0.051498   0.000000  -0.000904  -0.010037   0.000000
  134  H  2 YZ    1.754283   0.000000  -0.010037   0.000904   0.000000
  135  H  2 XX    0.000000  -0.752526   0.000000   0.000000   0.105182
  136  H  2 YY    0.000000  -0.752526   0.000000   0.000000   0.105182
  137  H  2 ZZ    0.000000   1.505053   0.000000   0.000000  -0.210364
  138  H  2 XY    0.000000   0.000000   0.000000   0.000000   0.000000
  139  H  2 XZ    0.042784   0.000000   0.020083   0.223044   0.000000
  140  H  2 YZ   -1.457441   0.000000   0.223044  -0.020083   0.000000
  141  H  2 XXX  -0.006370   0.000000  -0.004565  -0.050695   0.000000
  142  H  2 YYY   0.217010   0.000000  -0.050695   0.004565   0.000000
  143  H  2 ZZZ   0.000000   0.356838   0.000000   0.000000  -0.061011
  144  H  2 XXY   0.097050   0.000000  -0.022672   0.002041   0.000000
  145  H  2 XXZ   0.000000  -0.239374   0.000000   0.000000   0.040928
  146  H  2 YYX  -0.002849   0.000000  -0.002041  -0.022672   0.000000
  147  H  2 YYZ   0.000000  -0.239374   0.000000   0.000000   0.040928
  148  H  2 ZZX   0.011396   0.000000   0.008166   0.090686   0.000000
  149  H  2 ZZY  -0.388199   0.000000   0.090686  -0.008166   0.000000
  150  H  2 XYZ   0.000000   0.000000   0.000000   0.000000   0.000000
  151  H  2 XXX   0.006370   0.000000   0.007603   0.084443   0.000000
  152  H  2 YYY  -0.216994   0.000000   0.084443  -0.007603   0.000000
  153  H  2 ZZZ   0.000000  -0.352127   0.000000   0.000000   0.134207
  154  H  2 XXY  -0.097043   0.000000   0.037764  -0.003400   0.000000
  155  H  2 XXZ   0.000000   0.236214   0.000000   0.000000  -0.090029
  156  H  2 YYX   0.002849   0.000000   0.003400   0.037764   0.000000
  157  H  2 YYZ   0.000000   0.236214   0.000000   0.000000  -0.090029
  158  H  2 ZZX  -0.011395   0.000000  -0.013601  -0.151056   0.000000
  159  H  2 ZZY   0.388171   0.000000  -0.151056   0.013601   0.000000
  160  H  2 XYZ   0.000000   0.000000   0.000000   0.000000   0.000000
  161  H  2XXXX   0.000000   0.030389   0.000000   0.000000  -0.012599
  162  H  2YYYY   0.000000   0.030389   0.000000   0.000000  -0.012599
  163  H  2ZZZZ   0.000000   0.081036   0.000000   0.000000  -0.033597
  164  H  2XXXY   0.000000   0.000000   0.000000   0.000000   0.000000
  165  H  2XXXZ  -0.001684   0.000000  -0.001176  -0.013061   0.000000
  166  H  2YYYX   0.000000   0.000000   0.000000   0.000000   0.000000
  167  H  2YYYZ   0.057357   0.000000  -0.013061   0.001176   0.000000
  168  H  2ZZZX   0.002245   0.000000   0.001568   0.017415   0.000000
  169  H  2ZZZY  -0.076476   0.000000   0.017415  -0.001568   0.000000
  170  H  2XXYY   0.000000   0.017794   0.000000   0.000000  -0.007377
  171  H  2XXZZ   0.000000  -0.071175   0.000000   0.000000   0.029508
  172  H  2YYZZ   0.000000  -0.071175   0.000000   0.000000   0.029508
  173  H  2XXYZ   0.025651   0.000000  -0.005841   0.000526   0.000000
  174  H  2YYXZ  -0.000753   0.000000  -0.000526  -0.005841   0.000000
  175  H  2ZZXY   0.000000   0.000000   0.000000   0.000000   0.000000
 ...... END OF ROHF CALCULATION ......
 CPU     0: STEP CPU TIME=     4.64 TOTAL CPU TIME=        4.7 (    0.1 MIN)
 TOTAL WALL CLOCK TIME=        4.8 SECONDS, CPU UTILIZATION IS  98.95%

     ----------------------------------------------------------------
     PROPERTY VALUES FOR THE ROHF  SELF-CONSISTENT FIELD WAVEFUNCTION
     ----------------------------------------------------------------

          -----------------
          ENERGY COMPONENTS
          -----------------

         WAVEFUNCTION NORMALIZATION =       1.0000000000

                ONE ELECTRON ENERGY =     -12.4715204007
                TWO ELECTRON ENERGY =       3.4888166386
           NUCLEAR REPULSION ENERGY =       0.9953801164
                                      ------------------
                       TOTAL ENERGY =      -7.9873236457

 ELECTRON-ELECTRON POTENTIAL ENERGY =       3.4888166386
  NUCLEUS-ELECTRON POTENTIAL ENERGY =     -20.4629218390
   NUCLEUS-NUCLEUS POTENTIAL ENERGY =       0.9953801164
                                      ------------------
             TOTAL POTENTIAL ENERGY =     -15.9787250840
               TOTAL KINETIC ENERGY =       7.9914014383
                 VIRIAL RATIO (V/T) =       1.9994897275

          ---------------------------------------
          MULLIKEN AND LOWDIN POPULATION ANALYSES
          ---------------------------------------

     ATOMIC MULLIKEN POPULATION IN EACH MOLECULAR ORBITAL

                      1          2

                  2.000000   2.000000

    1             1.997662   0.632341
    2             0.002338   1.367659

          MULLIKEN SPHERICAL HARMONIC POPULATIONS
       ATOM           S       P       D      F      G      H      I    TOTAL
    1 LI            1.18    0.12    0.01   0.00   0.00   0.00   0.00    1.32
    2 H             0.68    0.00    0.00   0.00   0.00   0.00   0.00    0.68

          MULLIKEN SPHERICAL HARMONIC POPULATIONS
       ATOM           S       P       D      F      G      H      I    TOTAL
    1 LI            1.18    0.12    0.01   0.00   0.00   0.00   0.00    1.32
    2 H             0.68    0.00    0.00   0.00   0.00   0.00   0.00    0.68

     ATOMIC SPIN POPULATION (ALPHA MINUS BETA)
       ATOM         MULL.POP.                    LOW.POP.
    1 LI            0.000000                     0.000000
    2 H             0.000000                     0.000000

               ----- POPULATIONS IN EACH AO -----
                             MULLIKEN      LOWDIN
              1  LI 1  S      1.78136     0.87634
              2  LI 1  S      0.00296     0.80113
              3  LI 1  S      0.19478     0.23235
              4  LI 1  S      0.19090     0.06840
              5  LI 1  S      0.16412     0.05790
              6  LI 1  S      0.02907     0.03904
              7  LI 1  X      0.00000     0.00000
              8  LI 1  Y      0.00000     0.00000
              9  LI 1  Z      0.01478     0.01575
             10  LI 1  X      0.00000     0.00000
             11  LI 1  Y      0.00000     0.00000
             12  LI 1  Z      0.05429     0.04249
             13  LI 1  X      0.00000     0.00000
             14  LI 1  Y      0.00000     0.00000
             15  LI 1  Z      0.12922     0.06471
             16  LI 1  X      0.00000     0.00000
             17  LI 1  Y      0.00000     0.00000
             18  LI 1  Z      0.04385     0.04432
             19  LI 1  X      0.00000     0.00000
             20  LI 1  Y      0.00000     0.00000
             21  LI 1  Z      0.00208     0.01184
             22  LI 1 XX      0.00159     0.01828
             23  LI 1 YY      0.00000     0.01828
             24  LI 1 ZZ      0.00000     0.02644
             25  LI 1 XY      0.00000     0.00000
             26  LI 1 XZ      0.00000     0.00000
             27  LI 1 YZ      0.00000     0.00000
             28  LI 1 XX      0.00030     0.01363
             29  LI 1 YY      0.00000     0.01363
             30  LI 1 ZZ      0.00000     0.04135
             31  LI 1 XY      0.00000     0.00000
             32  LI 1 XZ      0.00000     0.00000
             33  LI 1 YZ      0.00000     0.00000
             34  LI 1 XX      0.01104     0.01531
             35  LI 1 YY      0.00000     0.01531
             36  LI 1 ZZ      0.00000     0.06512
             37  LI 1 XY      0.00000     0.00000
             38  LI 1 XZ      0.00000     0.00000
             39  LI 1 YZ      0.00000     0.00000
             40  LI 1 XX      0.00725     0.01050
             41  LI 1 YY      0.00000     0.01050
             42  LI 1 ZZ      0.00000     0.05789
             43  LI 1 XY      0.00000     0.00000
             44  LI 1 XZ      0.00000     0.00000
             45  LI 1 YZ      0.00000     0.00000
             46  LI 1 XXX     0.00000     0.00000
             47  LI 1 YYY     0.00000     0.00000
             48  LI 1 ZZZ     0.00000     0.04337
             49  LI 1 XXY     0.00046     0.00000
             50  LI 1 XXZ     0.00000     0.01050
             51  LI 1 YYX     0.00000     0.00000
             52  LI 1 YYZ     0.00000     0.01050
             53  LI 1 ZZX     0.00000     0.00000
             54  LI 1 ZZY     0.00000     0.00000
             55  LI 1 XYZ     0.00000     0.00000
             56  LI 1 XXX     0.00000     0.00000
             57  LI 1 YYY     0.00000     0.00000
             58  LI 1 ZZZ     0.00000     0.06147
             59  LI 1 XXY    -0.00032     0.00000
             60  LI 1 XXZ     0.00000     0.01234
             61  LI 1 YYX     0.00000     0.00000
             62  LI 1 YYZ     0.00000     0.01234
             63  LI 1 ZZX     0.00000     0.00000
             64  LI 1 ZZY     0.00000     0.00000
             65  LI 1 XYZ     0.00000     0.00000
             66  LI 1 XXX     0.00000     0.00000
             67  LI 1 YYY     0.00000     0.00000
             68  LI 1 ZZZ     0.00000     0.06626
             69  LI 1 XXY     0.00202     0.00000
             70  LI 1 XXZ     0.00000     0.01085
             71  LI 1 YYX     0.00000     0.00000
             72  LI 1 YYZ     0.00000     0.01085
             73  LI 1 ZZX     0.00000     0.00000
             74  LI 1 ZZY     0.00000     0.00000
             75  LI 1 XYZ     0.00000     0.00000
             76  LI 1XXXX     0.00000     0.00765
             77  LI 1YYYY     0.00000     0.00765
             78  LI 1ZZZZ     0.00000     0.04854
             79  LI 1XXXY     0.00000     0.00000
             80  LI 1XXXZ    -0.00015     0.00000
             81  LI 1YYYX     0.00000     0.00000
             82  LI 1YYYZ     0.00000     0.00000
             83  LI 1ZZZX     0.00000     0.00000
             84  LI 1ZZZY     0.00000     0.00000
             85  LI 1XXYY     0.00000     0.00828
             86  LI 1XXZZ     0.00000     0.01917
             87  LI 1YYZZ     0.00000     0.01917
             88  LI 1XXYZ     0.00000     0.00000
             89  LI 1YYXZ     0.00000     0.00000
             90  LI 1ZZXY     0.00000     0.00000
             91  LI 1XXXX     0.00000     0.00690
             92  LI 1YYYY     0.00000     0.00690
             93  LI 1ZZZZ     0.00000     0.06013
             94  LI 1XXXY     0.00000     0.00000
             95  LI 1XXXZ     0.00040     0.00000
             96  LI 1YYYX     0.00000     0.00000
             97  LI 1YYYZ     0.00000     0.00000
             98  LI 1ZZZX     0.00000     0.00000
             99  LI 1ZZZY     0.00000     0.00000
            100  LI 1XXYY     0.00000     0.00741
            101  LI 1XXZZ     0.00000     0.02107
            102  LI 1YYZZ     0.00000     0.02107
            103  LI 1XXYZ     0.00000     0.00000
            104  LI 1YYXZ     0.00000     0.00000
            105  LI 1ZZXY     0.00000     0.00000
            106  H  2  S      0.02830     0.03894
            107  H  2  S      0.11855     0.06433
            108  H  2  S      0.35730     0.10640
            109  H  2  S      0.52781     0.14890
            110  H  2  S      0.33245     0.13931
            111  H  2  X      0.00000     0.00000
            112  H  2  Y      0.00000     0.00000
            113  H  2  Z      0.00001     0.00001
            114  H  2  X      0.00000     0.00000
            115  H  2  Y      0.00000     0.00000
            116  H  2  Z      0.00005     0.00009
            117  H  2  X      0.00000     0.00000
            118  H  2  Y      0.00000     0.00000
            119  H  2  Z      0.00135     0.00046
            120  H  2  X      0.00000     0.00000
            121  H  2  Y      0.00000     0.00000
            122  H  2  Z      0.00386     0.01277
            123  H  2 XX      0.00000     0.02227
            124  H  2 YY      0.00000     0.02227
            125  H  2 ZZ      0.00000     0.02255
            126  H  2 XY      0.00000     0.00000
            127  H  2 XZ      0.00000     0.00000
            128  H  2 YZ      0.00000     0.00000
            129  H  2 XX      0.00001     0.03517
            130  H  2 YY      0.00000     0.03517
            131  H  2 ZZ      0.00000     0.03805
            132  H  2 XY      0.00000     0.00000
            133  H  2 XZ      0.00000     0.00000
            134  H  2 YZ      0.00000     0.00000
            135  H  2 XX      0.00025     0.05721
            136  H  2 YY      0.00000     0.05721
            137  H  2 ZZ      0.00000     0.06978
            138  H  2 XY      0.00000     0.00000
            139  H  2 XZ      0.00000     0.00000
            140  H  2 YZ      0.00000     0.00000
            141  H  2 XXX     0.00000     0.00000
            142  H  2 YYY     0.00000     0.00000
            143  H  2 ZZZ     0.00000     0.00009
            144  H  2 XXY    -0.00000     0.00000
            145  H  2 XXZ     0.00000     0.00004
            146  H  2 YYX     0.00000     0.00000
            147  H  2 YYZ     0.00000     0.00004
            148  H  2 ZZX     0.00000     0.00000
            149  H  2 ZZY     0.00000     0.00000
            150  H  2 XYZ     0.00000     0.00000
            151  H  2 XXX     0.00000     0.00000
            152  H  2 YYY     0.00000     0.00000
            153  H  2 ZZZ     0.00000     0.00128
            154  H  2 XXY     0.00005     0.00000
            155  H  2 XXZ     0.00000     0.00007
            156  H  2 YYX     0.00000     0.00000
            157  H  2 YYZ     0.00000     0.00007
            158  H  2 ZZX     0.00000     0.00000
            159  H  2 ZZY     0.00000     0.00000
            160  H  2 XYZ     0.00000     0.00000
            161  H  2XXXX     0.00000     0.01405
            162  H  2YYYY     0.00000     0.01405
            163  H  2ZZZZ     0.00000     0.01508
            164  H  2XXXY     0.00000     0.00000
            165  H  2XXXZ     0.00000     0.00000
            166  H  2YYYX     0.00000     0.00000
            167  H  2YYYZ     0.00000     0.00000
            168  H  2ZZZX     0.00000     0.00000
            169  H  2ZZZY     0.00000     0.00000
            170  H  2XXYY     0.00000     0.01683
            171  H  2XXZZ     0.00000     0.01729
            172  H  2YYZZ     0.00000     0.01729
            173  H  2XXYZ     0.00000     0.00000
            174  H  2YYXZ     0.00000     0.00000
            175  H  2ZZXY     0.00000     0.00000

          ----- MULLIKEN ATOMIC OVERLAP POPULATIONS -----
          (OFF-DIAGONAL ELEMENTS NEED TO BE MULTIPLIED BY 2)

             1           2

    1    2.2532100
    2    0.3767937   0.9932026

          TOTAL MULLIKEN AND LOWDIN ATOMIC POPULATIONS
       ATOM         MULL.POP.    CHARGE          LOW.POP.     CHARGE
    1 LI            2.630004    0.369996         3.032930   -0.032930
    2 H             1.369996   -0.369996         0.967070    0.032930

          MULLIKEN SPHERICAL HARMONIC POPULATIONS
       ATOM           S       P       D      F      G      H      I    TOTAL
    1 LI            2.36    0.24    0.02   0.00   0.00   0.00   0.00    2.63
    2 H             1.36    0.01    0.00   0.00   0.00   0.00   0.00    1.37

          -------------------------------
          BOND ORDER AND VALENCE ANALYSIS     BOND ORDER THRESHOLD=0.050
          -------------------------------

                   BOND                       BOND                       BOND
  ATOM PAIR DIST  ORDER      ATOM PAIR DIST  ORDER      ATOM PAIR DIST  ORDER
    1   2  1.595  0.866

                       TOTAL       BONDED        FREE
      ATOM            VALENCE     VALENCE     VALENCE
    1 LI                0.866       0.866      -0.000
    2 H                 0.866       0.866       0.000

          -----------------------------------------
          ATOMIC SPIN DENSITY AT THE NUCLEUS (A.U.)
          -----------------------------------------
                            SPIN DENS    ALPHA DENS     BETA DENS
    1  LI           3.0     0.0000000       6.82566       6.82566
    2  H            1.0     0.0000000       0.18124       0.18124

          ---------------------
          ELECTROSTATIC MOMENTS
          ---------------------

 POINT   1           X           Y           Z (BOHR)    CHARGE
                 0.000000    0.000000    0.378561       -0.00 (A.U.)
         DX          DY          DZ         /D/  (DEBYE)
     0.000000    0.000000   -5.998423    5.998423
 ...... END OF PROPERTY EVALUATION ......
 CPU     0: STEP CPU TIME=     0.02 TOTAL CPU TIME=        4.7 (    0.1 MIN)
 TOTAL WALL CLOCK TIME=        4.9 SECONDS, CPU UTILIZATION IS  97.33%
                580000  WORDS OF DYNAMIC MEMORY USED
 EXECUTION OF GAMESS TERMINATED NORMALLY Mon Jul 13 17:38:11 2015
 DDI: 263624 bytes (0.3 MB / 0 MWords) used by master data server.

 ----------------------------------------
 CPU timing information for all processes
 ========================================
 0: 4.606 + 0.158 = 4.765
 1: 4.783 + 0.132 = 4.916
 2: 4.815 + 0.105 = 4.921
 3: 4.789 + 0.126 = 4.916
 4: 4.807 + 0.109 = 4.917
 5: 4.782 + 0.133 = 4.916
 6: 4.804 + 0.113 = 4.918
 7: 4.795 + 0.121 = 4.917
 8: 6.673 + 0.244 = 6.918
 9: 6.650 + 0.266 = 6.917
 10: 6.631 + 0.287 = 6.919
 11: 6.728 + 0.189 = 6.918
 12: 6.669 + 0.248 = 6.918
 13: 6.712 + 0.204 = 6.917
 14: 6.706 + 0.212 = 6.919
 15: 6.561 + 0.357 = 6.918
 ----------------------------------------
