  Input file(s): vmc_short_pp_msdj-XML-traditional.xml 

=====================================================
                    QMCPACK 3.6.0 

       (c) Copyright 2003-  QMCPACK developers

                    Please cite:
 J. Kim et al. J. Phys. Cond. Mat. 30 195901 (2018)
      https://doi.org/10.1088/1361-648X/aab9c3

  Git branch: MultidetH5
  Last git commit: 0dd50b1f7d787531ee998079a61076bbec1e9d47-dirty
  Last git commit date: Fri Dec 28 22:11:52 2018 -0600
  Last git commit subject: minor removes
=====================================================
  Global options 

  MPI Nodes             = 1
  MPI Nodes per group   = 1
  MPI Group ID          = 0
  OMP 1st level threads = 16
  OMP nested threading disabled or only 1 thread on the 2nd level

  Precision used in this calculation, see definitions in the manual:
  Base precision      = double
  Full precision      = double

  Structure-of-arrays (SoA) optimization enabled

  Input XML = vmc_short_pp_msdj-XML-traditional.xml

  Project = C2_TZ_PP_SHORT_XML_MSDJ_TRAD
  date    = 2019-01-03 14:20:25 CST
  host    = abenali

 Random Number
 -------------
  Offset for the random number seeds based on time: 649

  Range of prime numbers to use as seeds over processors and threads = 4861-4987


 Particle Set 
 ------------
  Name: ion0
  All the species have the same mass 1
  Particle set size: 2

 Particle Set 
 ------------
  Name: e
  All the species have the same mass 1
  Particle set size: 8

 Wavefunction setup: 
 ------------------- 
  Name: psi0
  Created SPOSet builder named 'LCAOBSet' of type molecularorbital
  LCAO: SoaAtomicBasisSet<MultiQuintic,0>

  Distance table for similar particles (A-A):
    source/target: e
    Using structure-of-arrays (SoA) data layout
    Distance computations use open boundary conditions in 3D.


  Distance table for dissimilar particles (A-B):
    source: ion0  target: e
    Using structure-of-arrays (SoA) data layout
    Distance computations use open boundary conditions in 3D.

  AO BasisSet for C
   Angular momentum expanded in cartesian functions x^lx y^ly z^lz according to Gamess
Using log grid with default values: ri = 1e-06 rf = 100 npts = 1001
   R(n,l,m,s) 0 0 0 0
   R(n,l,m,s) 1 0 0 0
   R(n,l,m,s) 2 0 0 0
   R(n,l,m,s) 3 1 0 0
   R(n,l,m,s) 4 1 0 0
   R(n,l,m,s) 5 1 0 0
   R(n,l,m,s) 6 2 0 0
   R(n,l,m,s) 7 2 0 0
   R(n,l,m,s) 8 3 0 0
Expanding Ylm (angular function) according to Gamess using cartesian gaussians
Adding 1 cartesian gaussian orbitals for l= 0
Adding 1 cartesian gaussian orbitals for l= 0
Adding 1 cartesian gaussian orbitals for l= 0
Adding 3 cartesian gaussian orbitals for l= 1
Adding 3 cartesian gaussian orbitals for l= 1
Adding 3 cartesian gaussian orbitals for l= 1
Adding 6 cartesian gaussian orbitals for l= 2
Adding 6 cartesian gaussian orbitals for l= 2
Adding 10 cartesian gaussian orbitals for l= 3
   Maximum Angular Momentum  = 3
   Number of Radial functors = 9
   Basis size                = 34

Creating SPOSet in SlaterDetBuilder::put(xmlNodePtr cur).
spo_name = spo-up
  Building SPOSet 'spo-up' with 'LCAOBSet' basis set.
Creating SPOSet in SlaterDetBuilder::put(xmlNodePtr cur).
spo_name = spo-dn
  Building SPOSet 'spo-dn' with 'LCAOBSet' basis set.
Using a list of dirac determinants for MultiSlaterDeterminant expansion. 
Found determinant list. 
Reading CI expansion.
Found 202 terms in the MSD expansion.
Norm of ci vector (sum of ci^2): 1
Norm of qchem ci vector (sum of qchem_ci^2): 1
Found 25 unique up determinants.
Found 24 unique down determinants.
CI coefficients are not optimizable. 
  FermionWF = MultiSlaterDeterminant
  RadialJastrowBuilder adds a functor with cusp = -0.25
 size = 10 parameters 
 cusp = -0.25
 rcut = 10
Parameter     Name      Value
uu_0 0.336848 1 1  ON 0
uu_1 0.166676 1 1  ON 1
uu_2 0.0418052 1 1  ON 2
uu_3 -0.0444638 1 1  ON 3
uu_4 -0.101032 1 1  ON 4
uu_5 -0.137277 1 1  ON 5
uu_6 -0.154934 1 1  ON 6
uu_7 -0.148471 1 1  ON 7
uu_8 -0.111173 1 1  ON 8
uu_9 -0.0348299 1 1  ON 9
  RadialJastrowBuilder adds a functor with cusp = -0.5
 size = 10 parameters 
 cusp = -0.5
 rcut = 10
Parameter     Name      Value
ud_0 0.494183 1 1  ON 0
ud_1 0.180668 1 1  ON 1
ud_2 0.0216296 1 1  ON 2
ud_3 -0.0555405 1 1  ON 3
ud_4 -0.0986103 1 1  ON 4
ud_5 -0.125615 1 1  ON 5
ud_6 -0.143923 1 1  ON 6
ud_7 -0.151608 1 1  ON 7
ud_8 -0.14084 1 1  ON 8
ud_9 -0.106794 1 1  ON 9
 size = 10 parameters 
 cusp = 0
 rcut = 10
Parameter     Name      Value
eC_0 -0.675677 1 1  ON 0
eC_1 -0.505922 1 1  ON 1
eC_2 -0.240831 1 1  ON 2
eC_3 -0.0271818 1 1  ON 3
eC_4 0.132404 1 1  ON 4
eC_5 0.235427 1 1  ON 5
eC_6 0.283305 1 1  ON 6
eC_7 0.340151 1 1  ON 7
eC_8 0.317302 1 1  ON 8
eC_9 0.117145 1 1  ON 9
Parameter     Name      Value
uuC_0 0.00109866 1 1  ON 0
uuC_1 0.0287826 1 1  ON 1
uuC_2 0.0284599 1 1  ON 2
uuC_3 -0.0177905 1 1  ON 3
uuC_4 0.0332258 1 1  ON 4
uuC_5 0.0105201 1 1  ON 5
uuC_6 -0.00696977 1 1  ON 6
uuC_7 0.00585629 1 1  ON 7
uuC_8 -0.0208687 1 1  ON 8
uuC_9 0.0226365 1 1  ON 9
uuC_10 0.0147858 1 1  ON 10
uuC_11 0.0106574 1 1  ON 11
uuC_12 -0.0310145 1 1  ON 12
uuC_13 0.010548 1 1  ON 13
uuC_14 0.0187616 1 1  ON 14
uuC_15 0.0325978 1 1  ON 15
uuC_16 0.0252486 1 1  ON 16
uuC_17 0.0126119 1 1  ON 17
uuC_18 0.00832597 1 1  ON 18
uuC_19 -0.0148054 1 1  ON 19
uuC_20 0.0351001 1 1  ON 20
uuC_21 0.0173864 1 1  ON 21
uuC_22 -0.00286008 1 1  ON 22
uuC_23 0.0120159 1 1  ON 23
uuC_24 0.00614591 1 1  ON 24
uuC_25 0.00477923 1 1  ON 25
Parameter     Name      Value
udC_0 -0.044761 1 1  ON 0
udC_1 0.0373432 1 1  ON 1
udC_2 -0.0372732 1 1  ON 2
udC_3 0.0647354 1 1  ON 3
udC_4 0.0289952 1 1  ON 4
udC_5 -0.0142515 1 1  ON 5
udC_6 0.0257378 1 1  ON 6
udC_7 0.022173 1 1  ON 7
udC_8 0.00459501 1 1  ON 8
udC_9 -0.00457186 1 1  ON 9
udC_10 0.01037 1 1  ON 10
udC_11 0.0120211 1 1  ON 11
udC_12 -0.0176211 1 1  ON 12
udC_13 0.00198376 1 1  ON 13
udC_14 -0.0292125 1 1  ON 14
udC_15 0.00190232 1 1  ON 15
udC_16 0.000366726 1 1  ON 16
udC_17 0.0168993 1 1  ON 17
udC_18 0.0153081 1 1  ON 18
udC_19 0.0140731 1 1  ON 19
udC_20 -0.0218511 1 1  ON 20
udC_21 0.0121884 1 1  ON 21
udC_22 0.0256211 1 1  ON 22
udC_23 -0.0282609 1 1  ON 23
udC_24 -0.00590424 1 1  ON 24
udC_25 0.00598964 1 1  ON 25
  QMCHamiltonian::addOperator Kinetic to H, physical Hamiltonian 

  ECPotential builder for pseudopotential 

  Adding pseudopotential for C
   Linear grid  ri=0 rf=10 npts = 10001
    ECPComponentBuilder::buildSemiLocalAndLocal 
    Assuming Hartree unit
   Number of angular momentum channels 2
   Maximum angular momentum channel 1
   Creating a Linear Grid Rmax=1.7
  Using global grid with delta = 0.001
   Making L=1 a local potential with a radial cutoff of 9.999
    Non-local pseudopotential parameters
    Maximum angular mementum = 0
    Number of non-local channels = 1
       l(0)=0
    Cutoff radius = 1.7
    Spherical grids and weights: 
                        1                 0                 0       0.08333333333
                       -1   1.224646799e-16                 0       0.08333333333
             0.4472135955       0.894427191                 0       0.08333333333
            -0.4472135955      0.7236067977      0.5257311121       0.08333333333
             0.4472135955      0.2763932023      0.8506508084       0.08333333333
            -0.4472135955     -0.2763932023      0.8506508084       0.08333333333
             0.4472135955     -0.7236067977      0.5257311121       0.08333333333
            -0.4472135955      -0.894427191   1.095357397e-16       0.08333333333
             0.4472135955     -0.7236067977     -0.5257311121       0.08333333333
            -0.4472135955     -0.2763932023     -0.8506508084       0.08333333333
             0.4472135955      0.2763932023     -0.8506508084       0.08333333333
            -0.4472135955      0.7236067977     -0.5257311121       0.08333333333
    Maximum cutoff radius 1.7
  QMCHamiltonian::addOperator LocalECP to H, physical Hamiltonian 

  Using NonLocalECP potential 
    Maximum grid on a sphere for NonLocalECPotential: 12
  QMCHamiltonian::addOperator NonLocalECP to H, physical Hamiltonian 
QMCHamiltonian::addOperatorType added type pseudo named PseudoPot

  Distance table for similar particles (A-A):
    source/target: ion0
    Using structure-of-arrays (SoA) data layout
    Distance computations use open boundary conditions in 3D.

  QMCHamiltonian::addOperator IonIon to H, physical Hamiltonian 
QMCHamiltonian::addOperatorType added type coulomb named IonIon
  QMCHamiltonian::addOperator ElecElec to H, physical Hamiltonian 
QMCHamiltonian::addOperatorType added type coulomb named ElecElec

  QMCHamiltonian::add2WalkerProperty added
    5 to P::PropertyList 
    0 to P::Collectables 
    starting Index of the observables in P::PropertyList = 9
ParticleSetPool::randomize 
<init source="ion0" target="e">
</init>
  Initialization Execution time = 0.0925 secs
=========================================================
 Summary of QMC systems 
=========================================================
ParticleSetPool has: 

  ParticleSet e : 0 4 8 

    8

    u -2.8590527244e-01 -1.2521960129e-01  8.8583631356e-01
    u -4.2485788637e-01 -8.2039057421e-01  1.6906457322e-01
    u  2.4157592239e+00  6.9708547593e-01 -6.2579060681e-01
    u  2.8640794899e+00  4.8196869006e-01 -6.1930494993e-01
    d  1.1257563985e-01  8.5001211968e-01  3.8331953966e-01
    d  1.2797696993e-01  8.4288329717e-01  3.9407789876e-01
    d  1.6321757559e+00  6.0072388370e-01 -9.3781344993e-02
    d  2.0128652535e+00 -8.3859163908e-01 -2.5797046418e-01

  ParticleSet ion0 : 0 2 

    2

    C  0.0000000000e+00  0.0000000000e+00  0.0000000000e+00
    C  2.3480414016e+00  0.0000000000e+00  0.0000000000e+00

  Hamiltonian h0
  Kinetic         Kinetic energy
  LocalECP        LocalECPotential: ion0
  NonLocalECP     NonLocalECPotential: ion0
  IonIon          CoulombAA source/target ion0

  ElecElec        CoulombAA source/target e


=========================================================
  Start VMC
  File Root C2_TZ_PP_SHORT_XML_MSDJ_TRAD.s001 append = no 
=========================================================
  Adding 16 walkers to 0 existing sets
  Total number of walkers: 1.6000000000e+01
  Total weight: 1.6000000000e+01
  Resetting Properties of the walkers 1 x 14

<vmc function="put">
  qmc_counter=0  my_counter=0
  time step      = 5.0000000000e-01
  blocks         = 200
  steps          = 50
  substeps       = 10
  current        = 0
  target samples = 1.6000000000e+05
  walkers/mpi    = 16

  stepsbetweensamples = 1
<parameter name="blocks" condition="int">200</parameter>
<parameter name="blocks_between_recompute" condition="int">0</parameter>
<parameter name="check_properties" condition="int">100</parameter>
<parameter name="checkproperties" condition="int">100</parameter>
<parameter name="current" condition="int">0</parameter>
<parameter name="dmcwalkersperthread" condition="real">1.0000000000e+04</parameter>
<parameter name="maxcpusecs" condition="real">3.6000000000e+05</parameter>
<parameter name="record_configs" condition="int">0</parameter>
<parameter name="record_walkers" condition="int">1</parameter>
<parameter name="recordconfigs" condition="int">0</parameter>
<parameter name="recordwalkers" condition="int">1</parameter>
<parameter name="rewind" condition="int">0</parameter>
<parameter name="samples" condition="real">1.6000000000e+05</parameter>
<parameter name="samplesperthread" condition="real">1.0000000000e+04</parameter>
<parameter name="steps" condition="int">50</parameter>
<parameter name="stepsbetweensamples" condition="int">1</parameter>
<parameter name="store_configs" condition="int">0</parameter>
<parameter name="storeconfigs" condition="int">0</parameter>
<parameter name="sub_steps" condition="int">10</parameter>
<parameter name="substeps" condition="int">10</parameter>
<parameter name="tau" condition="au">5.0000000000e-01</parameter>
<parameter name="time_step" condition="au">5.0000000000e-01</parameter>
<parameter name="timestep" condition="au">5.0000000000e-01</parameter>
<parameter name="use_drift" condition="string">no</parameter>
<parameter name="usedrift" condition="string">no</parameter>
<parameter name="walkers" condition="int">16</parameter>
<parameter name="warmup_steps" condition="int">20</parameter>
<parameter name="warmupsteps" condition="int">20</parameter>
  DumpConfig==false Nothing (configurations, state) will be saved.
  Walker Samples are dumped every 1 steps.
</vmc>
  CloneManager::makeClones makes 16 clones for W/Psi/H.
  Cloning methods for both Psi and H are used
===== Memory Usage before cloning =====
Available memory on node 0, free + buffers : 25401 MB
Memory footprint by rank 0 on node 0       : 44 MB
==================================================
===== Memory Usage after cloning =====
Available memory on node 0, free + buffers : 25390 MB
Memory footprint by rank 0 on node 0       : 54 MB
==================================================
  Initial partition of walkers 0 1 2 3 4 5 6 7 8 9 10 11 12 13 14 15 16 

  Using Particle by Particle moves
  Walker moves without drift
  Total Sample Size   =160000
  Walker distribution on root = 0 1 2 3 4 5 6 7 8 9 10 11 12 13 14 15 16 
  Using Locality Approximation
===== Memory Usage after the buffer registration =====
Available memory on node 0, free + buffers : 25389 MB
Memory footprint by rank 0 on node 0       : 59 MB
==================================================
  Anonymous Buffer size per walker : 46704 Bytes.
MEMORY increase 0 MB VMC::resetRun
====================================================
  SimpleFixedNodeBranch::finalize after a VMC block
    QMC counter        = 0
    time step          = 0.5
    reference energy   = -11.0759
    reference variance = 0.0884449
====================================================
  QMC Execution time = 2.3696e+01 secs 
  Total Execution time = 2.3700e+01 secs

=========================================================
  A new xml input file : C2_TZ_PP_SHORT_XML_MSDJ_TRAD.s001.cont.xml
