 CRYSTAL
 PRIMVEC
     1.78500000    1.78500000    0.00000000
     0.00000000    1.78500000    1.78500000
     1.78500000    0.00000000    1.78500000
 PRIMCOORD
   2 1
     6   0.00000000    0.00000000    0.00000000
     6   0.89250000    0.89250000    0.89250000
