 CRYSTAL
 PRIMVEC
     3.57000000    0.00000000    0.00000000
     0.00000000    3.57000000    0.00000000
     0.00000000    0.00000000    3.57000000
 PRIMCOORD
   8 1
     6   0.00000000    0.00000000    0.00000000
     6   0.89250000    0.89250000    0.89250000
     6   0.00000000    1.78500000    1.78500000
     6   0.89250000    2.67750000    2.67750000
     6   1.78500000    0.00000000    1.78500000
     6   2.67750000    0.89250000    2.67750000
     6   1.78500000    1.78500000    0.00000000
     6   2.67750000    2.67750000    0.89250000
