
     Program PWSCF v.6.8 starts on 17Dec2021 at 13: 0:48 

     This program is part of the open-source Quantum ESPRESSO suite
     for quantum simulation of materials; please cite
         "P. Giannozzi et al., J. Phys.:Condens. Matter 21 395502 (2009);
         "P. Giannozzi et al., J. Phys.:Condens. Matter 29 465901 (2017);
         "P. Giannozzi et al., J. Chem. Phys. 152 154105 (2020);
          URL http://www.quantum-espresso.org", 
     in publications or presentations arising from this work. More details at
     http://www.quantum-espresso.org/quote

     Parallel version (MPI), running on     4 processors

     MPI processes distributed on     1 nodes
     R & G space division:  proc/nbgrp/npool/nimage =       4
     1984 MiB available memory on the printing compute node when the environment starts

     Reading input from scf.in

     Current dimensions of program PWSCF are:
     Max number of different atomic species (ntypx) = 10
     Max number of k-points (npk) =  40000
     Max angular momentum in pseudopotentials (lmaxx) =  4
     Message from routine scan_end:
     No INFO block end statement, possibly corrupted file
     file C.BFD.upf: wavefunction(s)  0s 0p renormalized

     IMPORTANT: XC functional enforced from input :
     Exchange-correlation= LDA
                           (   1   1   0   0   0   0   0)
     Any further DFT definition will be discarded
     Please, verify this is what you really want


     Subspace diagonalization in iterative solution of the eigenvalue problem:
     a serial algorithm will be used


     Parallelization info
     --------------------
     sticks:   dense  smooth     PW     G-vecs:    dense   smooth      PW
     Min         315     315     90                 7340     7340    1118
     Max         316     316     91                 7342     7342    1120
     Sum        1261    1261    361                29363    29363    4477

     Using Slab Decomposition



     bravais-lattice index     =            0
     lattice parameter (alat)  =       4.7704  a.u.
     unit-cell volume          =      76.7611 (a.u.)^3
     number of atoms/cell      =            2
     number of atomic types    =            1
     number of electrons       =         8.00
     number of Kohn-Sham states=            4
     kinetic-energy cutoff     =     200.0000  Ry
     charge density cutoff     =     800.0000  Ry
     scf convergence threshold =      1.0E-08
     mixing beta               =       0.7000
     number of iterations used =            8  plain     mixing
     Exchange-correlation= LDA
                           (   1   1   0   0   0   0   0)

     celldm(1)=   4.770370  celldm(2)=   0.000000  celldm(3)=   0.000000
     celldm(4)=   0.000000  celldm(5)=   0.000000  celldm(6)=   0.000000

     crystal axes: (cart. coord. in units of alat)
               a(1) = (   0.707107   0.707107  -0.000000 )  
               a(2) = (   0.000000   0.707107   0.707107 )  
               a(3) = (   0.707107   0.000000   0.707107 )  

     reciprocal axes: (cart. coord. in units 2 pi/alat)
               b(1) = (  0.707107  0.707107 -0.707107 )  
               b(2) = ( -0.707107  0.707107  0.707107 )  
               b(3) = (  0.707107 -0.707107  0.707107 )  


     PseudoPot. # 1 for C  read from file:
     ./C.BFD.upf
     MD5 check sum: 44213404c8404db625590c8337a04dfd
     Pseudo is Norm-conserving, Zval =  4.0
     Generated by new atomic code, or converted to UPF format
     Using radial grid of 2000 points,  1 beta functions with: 
                l(1) =   0

     atomic species   valence    mass     pseudopotential
        C              4.00    12.01100     C ( 1.00)

     No symmetry found



   Cartesian axes

     site n.     atom                  positions (alat units)
         1           C   tau(   1) = (   0.0000000   0.0000000   0.0000000  )
         2           C   tau(   2) = (   0.3535534   0.3535534   0.3535534  )

     number of k points=     4
                       cart. coord. in units 2pi/alat
        k(    1) = (   0.0000000   0.0000000   0.0000000), wk =   0.5000000
        k(    2) = (   0.3535534   0.3535534  -0.3535534), wk =   0.5000000
        k(    3) = (  -0.3535534   0.3535534   0.3535534), wk =   0.5000000
        k(    4) = (   0.0000000   0.7071068   0.0000000), wk =   0.5000000

     Dense  grid:    29363 G-vectors     FFT dimensions: (  45,  45,  45)

     Estimated max dynamical RAM per process >       5.28 MB

     Estimated total dynamical RAM >      21.11 MB

     Initial potential from superposition of free atoms

     starting charge    0.63662, renormalised to    8.00000
     Starting wfcs are    8 randomized atomic wfcs

     total cpu time spent up to now is        0.7 secs

     per-process dynamical memory:     9.8 Mb

     Self-consistent Calculation

     iteration #  1     ecut=   200.00 Ry     beta= 0.70
     Davidson diagonalization with overlap
     ethr =  1.00E-02,  avg # of iterations =  2.0

     total cpu time spent up to now is        0.9 secs

     total energy              =     -22.19462836 Ry
     estimated scf accuracy    <       0.22209739 Ry

     iteration #  2     ecut=   200.00 Ry     beta= 0.70
     Davidson diagonalization with overlap
     ethr =  2.78E-03,  avg # of iterations =  1.8

     total cpu time spent up to now is        0.9 secs

     total energy              =     -22.20776376 Ry
     estimated scf accuracy    <       0.00553548 Ry

     iteration #  3     ecut=   200.00 Ry     beta= 0.70
     Davidson diagonalization with overlap
     ethr =  6.92E-05,  avg # of iterations =  2.0

     total cpu time spent up to now is        1.0 secs

     total energy              =     -22.20854558 Ry
     estimated scf accuracy    <       0.00013236 Ry

     iteration #  4     ecut=   200.00 Ry     beta= 0.70
     Davidson diagonalization with overlap
     ethr =  1.65E-06,  avg # of iterations =  1.5

     total cpu time spent up to now is        1.0 secs

     total energy              =     -22.20855611 Ry
     estimated scf accuracy    <       0.00000276 Ry

     iteration #  5     ecut=   200.00 Ry     beta= 0.70
     Davidson diagonalization with overlap
     ethr =  3.45E-08,  avg # of iterations =  3.5

     total cpu time spent up to now is        1.1 secs

     total energy              =     -22.20855820 Ry
     estimated scf accuracy    <       0.00000008 Ry

     iteration #  6     ecut=   200.00 Ry     beta= 0.70
     Davidson diagonalization with overlap
     ethr =  9.94E-10,  avg # of iterations =  4.2

     total cpu time spent up to now is        1.2 secs

     total energy              =     -22.20855828 Ry
     estimated scf accuracy    <       0.00000004 Ry

     iteration #  7     ecut=   200.00 Ry     beta= 0.70
     Davidson diagonalization with overlap
     ethr =  5.53E-10,  avg # of iterations =  1.2

     total cpu time spent up to now is        1.3 secs

     total energy              =     -22.20855829 Ry
     estimated scf accuracy    <       0.00000001 Ry

     iteration #  8     ecut=   200.00 Ry     beta= 0.70
     Davidson diagonalization with overlap
     ethr =  1.78E-10,  avg # of iterations =  1.8

     total cpu time spent up to now is        1.4 secs

     End of self-consistent calculation

          k = 0.0000 0.0000 0.0000 (  3695 PWs)   bands (ev):

    -7.7936  13.8321  13.8408  13.8977

          k = 0.3536 0.3536-0.3536 (  3648 PWs)   bands (ev):

    -1.8760   0.0993  10.9703  11.0254

          k =-0.3536 0.3536 0.3536 (  3648 PWs)   bands (ev):

    -1.8760   0.0993  10.9703  11.0254

          k = 0.0000 0.7071 0.0000 (  3692 PWs)   bands (ev):

     0.9530   0.9749   7.3479   7.3967

     highest occupied level (ev):    13.8977

!    total energy              =     -22.20855829 Ry
     estimated scf accuracy    <          5.8E-09 Ry

     The total energy is the sum of the following terms:
     one-electron contribution =       8.29970491 Ry
     hartree contribution      =       2.19838676 Ry
     xc contribution           =      -7.15531551 Ry
     ewald contribution        =     -25.55133445 Ry

     convergence has been achieved in   8 iterations

     Writing output data file pwscf_output/pwscf.save/

     init_run     :      0.68s CPU      0.65s WALL (       1 calls)
     electrons    :      0.77s CPU      0.68s WALL (       1 calls)

     Called by init_run:
     wfcinit      :      0.63s CPU      0.60s WALL (       1 calls)
     potinit      :      0.01s CPU      0.01s WALL (       1 calls)
     hinit0       :      0.03s CPU      0.03s WALL (       1 calls)

     Called by electrons:
     c_bands      :      0.58s CPU      0.52s WALL (       8 calls)
     sum_band     :      0.10s CPU      0.09s WALL (       8 calls)
     v_of_rho     :      0.02s CPU      0.02s WALL (       9 calls)
     mix_rho      :      0.03s CPU      0.03s WALL (       8 calls)

     Called by c_bands:
     init_us_2    :      0.00s CPU      0.00s WALL (      68 calls)
     cegterg      :      0.58s CPU      0.51s WALL (      32 calls)

     Called by *egterg:
     cdiaghg      :      0.02s CPU      0.02s WALL (     104 calls)
     h_psi        :      0.80s CPU      0.75s WALL (     108 calls)
     g_psi        :      0.00s CPU      0.00s WALL (      72 calls)

     Called by h_psi:
     h_psi:calbec :      0.01s CPU      0.01s WALL (     108 calls)
     vloc_psi     :      0.79s CPU      0.74s WALL (     108 calls)
     add_vuspsi   :      0.00s CPU      0.00s WALL (     108 calls)

     General routines
     calbec       :      0.01s CPU      0.00s WALL (     108 calls)
     fft          :      0.02s CPU      0.02s WALL (      26 calls)
     ffts         :      0.01s CPU      0.01s WALL (       8 calls)
     fftw         :      0.83s CPU      0.78s WALL (     894 calls)

     Parallel routines

     PWSCF        :      1.51s CPU      1.40s WALL


   This run was terminated on:  13: 0:50  17Dec2021            

=------------------------------------------------------------------------------=
   JOB DONE.
=------------------------------------------------------------------------------=
